/*--------------------------------*- C++ -*----------------------------------*\
  =========                 |
  \\      /  F ield         | OpenFOAM: The Open Source CFD Toolbox
   \\    /   O peration     | Website:  https://openfoam.org
    \\  /    A nd           | Version:  6
     \\/     M anipulation  |
\*---------------------------------------------------------------------------*/
FoamFile
{
    version     2.0;
    format      ascii;
    class       volScalarField;
    location    "924.998729937416215";
    object      H;
}
// * * * * * * * * * * * * * * * * * * * * * * * * * * * * * * * * * * * * * //

dimensions      [1 -1 -2 0 0 0 0];

internalField   nonuniform List<scalar> 
120400
(
2.99037e+09
2.99079e+09
2.99095e+09
2.99102e+09
2.99105e+09
2.99107e+09
2.99108e+09
2.99108e+09
2.99108e+09
2.99108e+09
2.99108e+09
2.99108e+09
2.99108e+09
2.99108e+09
2.99108e+09
2.99107e+09
2.99108e+09
2.99109e+09
2.9911e+09
2.9911e+09
2.9911e+09
2.9911e+09
2.9911e+09
2.9911e+09
2.99109e+09
2.99109e+09
2.99109e+09
2.99109e+09
2.99108e+09
2.99108e+09
2.99123e+09
2.9912e+09
2.99118e+09
2.99116e+09
2.99115e+09
2.99114e+09
2.99113e+09
2.99112e+09
2.99111e+09
2.99111e+09
2.9911e+09
2.9911e+09
2.99109e+09
2.99109e+09
2.99108e+09
2.9913e+09
2.99126e+09
2.99123e+09
2.99121e+09
2.99118e+09
2.99117e+09
2.99115e+09
2.99114e+09
2.99113e+09
2.99112e+09
2.99111e+09
2.9911e+09
2.99109e+09
2.99109e+09
2.99108e+09
2.99135e+09
2.99131e+09
2.99127e+09
2.99124e+09
2.99121e+09
2.99119e+09
2.99117e+09
2.99115e+09
2.99114e+09
2.99113e+09
2.99112e+09
2.99111e+09
2.9911e+09
2.99109e+09
2.99109e+09
2.9914e+09
2.99135e+09
2.99131e+09
2.99127e+09
2.99124e+09
2.99121e+09
2.99119e+09
2.99117e+09
2.99115e+09
2.99114e+09
2.99112e+09
2.99111e+09
2.9911e+09
2.99109e+09
2.99109e+09
2.99146e+09
2.9914e+09
2.99135e+09
2.99131e+09
2.99127e+09
2.99124e+09
2.99121e+09
2.99118e+09
2.99116e+09
2.99115e+09
2.99113e+09
2.99112e+09
2.99111e+09
2.9911e+09
2.99109e+09
2.99152e+09
2.99145e+09
2.99139e+09
2.99134e+09
2.9913e+09
2.99126e+09
2.99123e+09
2.9912e+09
2.99118e+09
2.99116e+09
2.99114e+09
2.99112e+09
2.99111e+09
2.9911e+09
2.99109e+09
2.9916e+09
2.99152e+09
2.99145e+09
2.99139e+09
2.99134e+09
2.99129e+09
2.99126e+09
2.99122e+09
2.99119e+09
2.99117e+09
2.99115e+09
2.99113e+09
2.99111e+09
2.9911e+09
2.99109e+09
2.99169e+09
2.9916e+09
2.99152e+09
2.99145e+09
2.99139e+09
2.99133e+09
2.99129e+09
2.99125e+09
2.99122e+09
2.99119e+09
2.99116e+09
2.99114e+09
2.99112e+09
2.9911e+09
2.99109e+09
2.9918e+09
2.99169e+09
2.9916e+09
2.99152e+09
2.99144e+09
2.99138e+09
2.99133e+09
2.99128e+09
2.99124e+09
2.99121e+09
2.99118e+09
2.99115e+09
2.99113e+09
2.99111e+09
2.99109e+09
2.99195e+09
2.99182e+09
2.9917e+09
2.9916e+09
2.99152e+09
2.99144e+09
2.99138e+09
2.99132e+09
2.99127e+09
2.99123e+09
2.99119e+09
2.99116e+09
2.99114e+09
2.99111e+09
2.99109e+09
2.99213e+09
2.99197e+09
2.99184e+09
2.99172e+09
2.99161e+09
2.99152e+09
2.99144e+09
2.99137e+09
2.99131e+09
2.99126e+09
2.99122e+09
2.99118e+09
2.99115e+09
2.99112e+09
2.99109e+09
2.99236e+09
2.99217e+09
2.99201e+09
2.99186e+09
2.99173e+09
2.99162e+09
2.99152e+09
2.99144e+09
2.99137e+09
2.99131e+09
2.99125e+09
2.9912e+09
2.99116e+09
2.99113e+09
2.9911e+09
2.99266e+09
2.99243e+09
2.99223e+09
2.99205e+09
2.99189e+09
2.99175e+09
2.99163e+09
2.99153e+09
2.99144e+09
2.99136e+09
2.99129e+09
2.99123e+09
2.99118e+09
2.99114e+09
2.9911e+09
2.99305e+09
2.99277e+09
2.99252e+09
2.9923e+09
2.9921e+09
2.99193e+09
2.99178e+09
2.99165e+09
2.99153e+09
2.99143e+09
2.99135e+09
2.99127e+09
2.99121e+09
2.99115e+09
2.9911e+09
2.99356e+09
2.99322e+09
2.99291e+09
2.99263e+09
2.99239e+09
2.99217e+09
2.99198e+09
2.99181e+09
2.99166e+09
2.99153e+09
2.99142e+09
2.99133e+09
2.99125e+09
2.99117e+09
2.99111e+09
2.99426e+09
2.99384e+09
2.99346e+09
2.9931e+09
2.99279e+09
2.9925e+09
2.99226e+09
2.99204e+09
2.99184e+09
2.99168e+09
2.99153e+09
2.99141e+09
2.9913e+09
2.9912e+09
2.99112e+09
2.99521e+09
2.99471e+09
2.99423e+09
2.99378e+09
2.99337e+09
2.993e+09
2.99267e+09
2.99237e+09
2.99212e+09
2.99189e+09
2.99169e+09
2.99152e+09
2.99137e+09
2.99125e+09
2.99113e+09
2.99654e+09
2.99594e+09
2.99534e+09
2.99477e+09
2.99424e+09
2.99374e+09
2.9933e+09
2.99289e+09
2.99254e+09
2.99222e+09
2.99195e+09
2.99171e+09
2.9915e+09
2.99131e+09
2.99116e+09
2.99838e+09
2.9977e+09
2.997e+09
2.99629e+09
2.9956e+09
2.99494e+09
2.99432e+09
2.99375e+09
2.99324e+09
2.99278e+09
2.99237e+09
2.99201e+09
2.9917e+09
2.99143e+09
2.99119e+09
3.00091e+09
3.00023e+09
2.99949e+09
2.99868e+09
2.99784e+09
2.99699e+09
2.99614e+09
2.99532e+09
2.99454e+09
2.99383e+09
2.99318e+09
2.99261e+09
2.9921e+09
2.99165e+09
2.99126e+09
3.00428e+09
3.00378e+09
3.00318e+09
3.00248e+09
3.00167e+09
3.00075e+09
2.99972e+09
2.9986e+09
2.99742e+09
2.99622e+09
2.99506e+09
2.99399e+09
2.99302e+09
2.99217e+09
2.99143e+09
3.28107e+09
3.26342e+09
3.24703e+09
3.22378e+09
3.19331e+09
3.15292e+09
3.1029e+09
3.02893e+09
3.00626e+09
3.00402e+09
3.00123e+09
2.9984e+09
2.99594e+09
2.9938e+09
2.99194e+09
3.8847e+09
3.88487e+09
3.88503e+09
3.88518e+09
3.88882e+09
3.89142e+09
3.88408e+09
3.8735e+09
3.86422e+09
3.85183e+09
3.83163e+09
3.24368e+09
3.0029e+09
2.99783e+09
2.99324e+09
3.88108e+09
3.88279e+09
3.88348e+09
3.88337e+09
3.88378e+09
3.88512e+09
3.88626e+09
3.88683e+09
3.88727e+09
3.88924e+09
3.89436e+09
3.88924e+09
3.86293e+09
3.82773e+09
3.00335e+09
3.87683e+09
3.8786e+09
3.87942e+09
3.87943e+09
3.87941e+09
3.8797e+09
3.8804e+09
3.88136e+09
3.88255e+09
3.88414e+09
3.88768e+09
3.88646e+09
3.86671e+09
3.83162e+09
3.00434e+09
3.86676e+09
3.86898e+09
3.871e+09
3.87238e+09
3.87317e+09
3.87369e+09
3.87399e+09
3.87442e+09
3.87564e+09
3.87789e+09
3.88169e+09
3.8817e+09
3.86514e+09
3.83149e+09
3.00435e+09
3.85662e+09
3.85878e+09
3.86171e+09
3.86421e+09
3.86599e+09
3.86724e+09
3.86797e+09
3.86853e+09
3.8699e+09
3.8725e+09
3.87645e+09
3.87762e+09
3.86209e+09
3.82936e+09
3.00373e+09
3.85396e+09
3.85549e+09
3.85778e+09
3.8599e+09
3.86143e+09
3.8626e+09
3.86325e+09
3.86378e+09
3.86599e+09
3.86987e+09
3.87473e+09
3.87378e+09
3.85526e+09
3.82419e+09
3.00244e+09
3.85386e+09
3.85439e+09
3.85597e+09
3.8577e+09
3.85904e+09
3.86014e+09
3.86108e+09
3.86305e+09
3.8661e+09
3.8708e+09
3.87494e+09
3.86932e+09
3.84808e+09
3.81953e+09
3.00132e+09
3.85419e+09
3.85346e+09
3.85369e+09
3.85534e+09
3.85723e+09
3.8589e+09
3.86107e+09
3.86402e+09
3.86843e+09
3.87376e+09
3.87496e+09
3.86264e+09
3.83942e+09
3.81392e+09
2.99998e+09
3.85548e+09
3.85521e+09
3.85369e+09
3.85333e+09
3.85516e+09
3.85795e+09
3.86141e+09
3.86605e+09
3.87165e+09
3.87511e+09
3.86969e+09
3.85099e+09
3.82616e+09
3.65529e+09
2.99711e+09
3.85683e+09
3.85803e+09
3.85722e+09
3.85477e+09
3.85418e+09
3.8567e+09
3.86109e+09
3.86653e+09
3.87239e+09
3.87478e+09
3.86708e+09
3.84787e+09
3.82451e+09
3.44383e+09
2.9968e+09
3.85722e+09
3.85878e+09
3.85962e+09
3.85855e+09
3.85625e+09
3.85611e+09
3.8594e+09
3.86555e+09
3.87219e+09
3.8745e+09
3.86638e+09
3.84745e+09
3.82369e+09
3.19369e+09
2.99645e+09
3.85677e+09
3.85774e+09
3.85895e+09
3.85965e+09
3.85939e+09
3.85838e+09
3.85923e+09
3.86269e+09
3.86768e+09
3.87093e+09
3.86524e+09
3.84674e+09
3.82246e+09
3.05055e+09
2.99624e+09
3.85742e+09
3.85786e+09
3.85855e+09
3.85927e+09
3.85962e+09
3.85904e+09
3.8584e+09
3.86153e+09
3.86962e+09
3.87457e+09
3.86395e+09
3.84096e+09
3.81797e+09
3.01757e+09
2.99619e+09
3.85697e+09
3.85711e+09
3.85733e+09
3.85773e+09
3.85863e+09
3.85972e+09
3.86168e+09
3.86547e+09
3.8674e+09
3.85844e+09
3.83919e+09
3.81959e+09
3.58221e+09
3.00157e+09
2.99441e+09
3.85466e+09
3.85523e+09
3.85645e+09
3.85842e+09
3.86073e+09
3.8631e+09
3.8649e+09
3.86494e+09
3.85999e+09
3.84925e+09
3.83655e+09
3.82317e+09
3.80971e+09
3.00501e+09
2.99553e+09
3.87158e+09
3.8714e+09
3.87134e+09
3.87142e+09
3.87116e+09
3.87043e+09
3.86858e+09
3.86514e+09
3.86008e+09
3.85352e+09
3.84608e+09
3.8366e+09
3.82438e+09
3.80889e+09
2.99992e+09
2.99098e+09
2.99101e+09
2.99105e+09
2.99107e+09
2.99108e+09
2.99109e+09
2.99109e+09
2.99109e+09
2.99109e+09
2.99109e+09
2.99109e+09
2.99109e+09
2.99108e+09
2.99108e+09
2.99108e+09
2.99115e+09
2.99113e+09
2.99112e+09
2.99112e+09
2.99112e+09
2.99111e+09
2.99111e+09
2.9911e+09
2.9911e+09
2.9911e+09
2.99109e+09
2.99109e+09
2.99109e+09
2.99109e+09
2.99108e+09
2.99125e+09
2.99121e+09
2.99119e+09
2.99117e+09
2.99115e+09
2.99114e+09
2.99113e+09
2.99112e+09
2.99111e+09
2.99111e+09
2.9911e+09
2.9911e+09
2.99109e+09
2.99109e+09
2.99108e+09
2.99131e+09
2.99127e+09
2.99123e+09
2.99121e+09
2.99119e+09
2.99117e+09
2.99115e+09
2.99114e+09
2.99113e+09
2.99112e+09
2.99111e+09
2.9911e+09
2.99109e+09
2.99109e+09
2.99108e+09
2.99136e+09
2.99131e+09
2.99127e+09
2.99124e+09
2.99121e+09
2.99119e+09
2.99117e+09
2.99115e+09
2.99114e+09
2.99113e+09
2.99112e+09
2.99111e+09
2.9911e+09
2.99109e+09
2.99109e+09
2.9914e+09
2.99135e+09
2.99131e+09
2.99127e+09
2.99124e+09
2.99121e+09
2.99119e+09
2.99117e+09
2.99115e+09
2.99114e+09
2.99112e+09
2.99111e+09
2.9911e+09
2.99109e+09
2.99109e+09
2.99146e+09
2.9914e+09
2.99135e+09
2.9913e+09
2.99127e+09
2.99123e+09
2.99121e+09
2.99118e+09
2.99116e+09
2.99114e+09
2.99113e+09
2.99112e+09
2.9911e+09
2.9911e+09
2.99109e+09
2.99152e+09
2.99145e+09
2.99139e+09
2.99134e+09
2.9913e+09
2.99126e+09
2.99123e+09
2.9912e+09
2.99118e+09
2.99116e+09
2.99114e+09
2.99112e+09
2.99111e+09
2.9911e+09
2.99109e+09
2.9916e+09
2.99152e+09
2.99145e+09
2.99139e+09
2.99134e+09
2.99129e+09
2.99125e+09
2.99122e+09
2.99119e+09
2.99117e+09
2.99115e+09
2.99113e+09
2.99111e+09
2.9911e+09
2.99109e+09
2.99169e+09
2.9916e+09
2.99152e+09
2.99145e+09
2.99138e+09
2.99133e+09
2.99129e+09
2.99125e+09
2.99121e+09
2.99118e+09
2.99116e+09
2.99114e+09
2.99112e+09
2.9911e+09
2.99109e+09
2.9918e+09
2.99169e+09
2.9916e+09
2.99151e+09
2.99144e+09
2.99138e+09
2.99133e+09
2.99128e+09
2.99124e+09
2.9912e+09
2.99117e+09
2.99115e+09
2.99113e+09
2.99111e+09
2.99109e+09
2.99195e+09
2.99182e+09
2.9917e+09
2.9916e+09
2.99152e+09
2.99144e+09
2.99138e+09
2.99132e+09
2.99127e+09
2.99123e+09
2.99119e+09
2.99116e+09
2.99114e+09
2.99111e+09
2.99109e+09
2.99213e+09
2.99197e+09
2.99183e+09
2.99171e+09
2.99161e+09
2.99152e+09
2.99144e+09
2.99137e+09
2.99131e+09
2.99126e+09
2.99122e+09
2.99118e+09
2.99115e+09
2.99112e+09
2.99109e+09
2.99236e+09
2.99217e+09
2.992e+09
2.99186e+09
2.99173e+09
2.99162e+09
2.99152e+09
2.99144e+09
2.99137e+09
2.9913e+09
2.99125e+09
2.9912e+09
2.99116e+09
2.99113e+09
2.9911e+09
2.99266e+09
2.99243e+09
2.99222e+09
2.99204e+09
2.99189e+09
2.99175e+09
2.99163e+09
2.99152e+09
2.99143e+09
2.99136e+09
2.99129e+09
2.99123e+09
2.99118e+09
2.99114e+09
2.9911e+09
2.99305e+09
2.99277e+09
2.99252e+09
2.99229e+09
2.9921e+09
2.99192e+09
2.99177e+09
2.99164e+09
2.99153e+09
2.99143e+09
2.99134e+09
2.99127e+09
2.99121e+09
2.99115e+09
2.9911e+09
2.99356e+09
2.99322e+09
2.99291e+09
2.99263e+09
2.99238e+09
2.99216e+09
2.99197e+09
2.9918e+09
2.99166e+09
2.99153e+09
2.99142e+09
2.99133e+09
2.99124e+09
2.99117e+09
2.99111e+09
2.99426e+09
2.99384e+09
2.99345e+09
2.9931e+09
2.99278e+09
2.9925e+09
2.99225e+09
2.99203e+09
2.99184e+09
2.99167e+09
2.99153e+09
2.9914e+09
2.99129e+09
2.9912e+09
2.99112e+09
2.99521e+09
2.9947e+09
2.99421e+09
2.99376e+09
2.99335e+09
2.99298e+09
2.99265e+09
2.99236e+09
2.9921e+09
2.99188e+09
2.99169e+09
2.99152e+09
2.99137e+09
2.99124e+09
2.99113e+09
2.99653e+09
2.99592e+09
2.99533e+09
2.99475e+09
2.99422e+09
2.99373e+09
2.99328e+09
2.99288e+09
2.99252e+09
2.99221e+09
2.99194e+09
2.9917e+09
2.99149e+09
2.99131e+09
2.99115e+09
2.99837e+09
2.99768e+09
2.99697e+09
2.99627e+09
2.99558e+09
2.99492e+09
2.9943e+09
2.99373e+09
2.99322e+09
2.99276e+09
2.99236e+09
2.992e+09
2.99169e+09
2.99142e+09
2.99119e+09
3.0009e+09
3.00021e+09
2.99946e+09
2.99865e+09
2.99781e+09
2.99695e+09
2.9961e+09
2.99528e+09
2.99451e+09
2.9938e+09
2.99316e+09
2.99259e+09
2.99208e+09
2.99164e+09
2.99126e+09
3.00426e+09
3.00375e+09
3.00316e+09
3.00245e+09
3.00164e+09
3.00071e+09
2.99967e+09
2.99855e+09
2.99736e+09
2.99616e+09
2.995e+09
2.99394e+09
2.99299e+09
2.99215e+09
2.99142e+09
3.27606e+09
3.26171e+09
3.24421e+09
3.22151e+09
3.19178e+09
3.15251e+09
3.10196e+09
3.02483e+09
3.00609e+09
3.00378e+09
3.00099e+09
2.9982e+09
2.99579e+09
2.99371e+09
2.99191e+09
3.88788e+09
3.88772e+09
3.88524e+09
3.88347e+09
3.88994e+09
3.88958e+09
3.87832e+09
3.86965e+09
3.86241e+09
3.85069e+09
3.83091e+09
3.14988e+09
3.0026e+09
2.99764e+09
2.99317e+09
3.88691e+09
3.88778e+09
3.88742e+09
3.88554e+09
3.88478e+09
3.88513e+09
3.88534e+09
3.88474e+09
3.88478e+09
3.88765e+09
3.89442e+09
3.88978e+09
3.86298e+09
3.82738e+09
3.00319e+09
3.87891e+09
3.88038e+09
3.88086e+09
3.88035e+09
3.87942e+09
3.87933e+09
3.88005e+09
3.88098e+09
3.88181e+09
3.884e+09
3.88883e+09
3.88684e+09
3.86492e+09
3.82991e+09
3.00392e+09
3.86614e+09
3.8681e+09
3.86981e+09
3.87135e+09
3.87212e+09
3.87256e+09
3.87314e+09
3.87413e+09
3.87584e+09
3.879e+09
3.88391e+09
3.88291e+09
3.86386e+09
3.8301e+09
3.00399e+09
3.85544e+09
3.85681e+09
3.85832e+09
3.8607e+09
3.86286e+09
3.86444e+09
3.86569e+09
3.867e+09
3.86905e+09
3.8725e+09
3.87814e+09
3.87866e+09
3.86119e+09
3.82847e+09
3.00353e+09
3.85466e+09
3.85496e+09
3.85553e+09
3.85638e+09
3.85749e+09
3.85876e+09
3.85987e+09
3.86143e+09
3.86491e+09
3.87036e+09
3.87654e+09
3.87465e+09
3.85469e+09
3.82366e+09
3.00231e+09
3.8553e+09
3.85538e+09
3.8558e+09
3.85615e+09
3.85649e+09
3.85719e+09
3.85856e+09
3.86128e+09
3.86584e+09
3.87231e+09
3.87637e+09
3.86919e+09
3.84694e+09
3.8185e+09
3.00102e+09
3.85504e+09
3.85459e+09
3.85489e+09
3.85574e+09
3.85661e+09
3.8577e+09
3.85993e+09
3.86403e+09
3.86997e+09
3.8756e+09
3.87499e+09
3.86078e+09
3.83735e+09
3.81251e+09
2.99959e+09
3.85549e+09
3.85473e+09
3.85389e+09
3.8543e+09
3.85618e+09
3.85871e+09
3.86255e+09
3.86815e+09
3.874e+09
3.87571e+09
3.86785e+09
3.84807e+09
3.82453e+09
3.66598e+09
2.99711e+09
3.85694e+09
3.85722e+09
3.85602e+09
3.85467e+09
3.85521e+09
3.85828e+09
3.86307e+09
3.86901e+09
3.87449e+09
3.87547e+09
3.8662e+09
3.84719e+09
3.82435e+09
3.46053e+09
2.99682e+09
3.8573e+09
3.8586e+09
3.85888e+09
3.85775e+09
3.85633e+09
3.85707e+09
3.86083e+09
3.86721e+09
3.87375e+09
3.87565e+09
3.86739e+09
3.84847e+09
3.82432e+09
3.224e+09
2.99648e+09
3.85677e+09
3.8578e+09
3.85874e+09
3.8593e+09
3.85903e+09
3.8585e+09
3.85985e+09
3.86375e+09
3.86884e+09
3.87204e+09
3.8665e+09
3.84792e+09
3.82303e+09
3.04033e+09
2.99622e+09
3.85748e+09
3.85795e+09
3.85856e+09
3.85913e+09
3.85944e+09
3.859e+09
3.85849e+09
3.86155e+09
3.86996e+09
3.87571e+09
3.86581e+09
3.84246e+09
3.81863e+09
3.0183e+09
2.99618e+09
3.85702e+09
3.8572e+09
3.85729e+09
3.85774e+09
3.85857e+09
3.85956e+09
3.86153e+09
3.86569e+09
3.86819e+09
3.85986e+09
3.8407e+09
3.82032e+09
3.62177e+09
3.00166e+09
2.99443e+09
3.85465e+09
3.85511e+09
3.8566e+09
3.85829e+09
3.86058e+09
3.86293e+09
3.86483e+09
3.86518e+09
3.86031e+09
3.84948e+09
3.83638e+09
3.82283e+09
3.80918e+09
3.0047e+09
2.99542e+09
3.87131e+09
3.87105e+09
3.87115e+09
3.87104e+09
3.87097e+09
3.87001e+09
3.86831e+09
3.86485e+09
3.85975e+09
3.85308e+09
3.84562e+09
3.83619e+09
3.82405e+09
3.80867e+09
2.99985e+09
2.99115e+09
2.99113e+09
2.99113e+09
2.99112e+09
2.99112e+09
2.99111e+09
2.99111e+09
2.9911e+09
2.9911e+09
2.9911e+09
2.99109e+09
2.99109e+09
2.99109e+09
2.99109e+09
2.99108e+09
2.99121e+09
2.99118e+09
2.99116e+09
2.99115e+09
2.99114e+09
2.99113e+09
2.99112e+09
2.99111e+09
2.99111e+09
2.9911e+09
2.9911e+09
2.99109e+09
2.99109e+09
2.99109e+09
2.99108e+09
2.99127e+09
2.99123e+09
2.9912e+09
2.99118e+09
2.99117e+09
2.99115e+09
2.99114e+09
2.99113e+09
2.99112e+09
2.99111e+09
2.9911e+09
2.9911e+09
2.99109e+09
2.99109e+09
2.99108e+09
2.99131e+09
2.99127e+09
2.99124e+09
2.99121e+09
2.99119e+09
2.99117e+09
2.99115e+09
2.99114e+09
2.99113e+09
2.99112e+09
2.99111e+09
2.9911e+09
2.9911e+09
2.99109e+09
2.99108e+09
2.99136e+09
2.99131e+09
2.99128e+09
2.99124e+09
2.99121e+09
2.99119e+09
2.99117e+09
2.99115e+09
2.99114e+09
2.99113e+09
2.99112e+09
2.99111e+09
2.9911e+09
2.99109e+09
2.99109e+09
2.99141e+09
2.99135e+09
2.99131e+09
2.99127e+09
2.99124e+09
2.99121e+09
2.99119e+09
2.99117e+09
2.99115e+09
2.99114e+09
2.99112e+09
2.99111e+09
2.9911e+09
2.99109e+09
2.99109e+09
2.99146e+09
2.9914e+09
2.99135e+09
2.9913e+09
2.99127e+09
2.99123e+09
2.99121e+09
2.99118e+09
2.99116e+09
2.99114e+09
2.99113e+09
2.99112e+09
2.9911e+09
2.9911e+09
2.99109e+09
2.99152e+09
2.99145e+09
2.99139e+09
2.99134e+09
2.9913e+09
2.99126e+09
2.99123e+09
2.9912e+09
2.99118e+09
2.99116e+09
2.99114e+09
2.99112e+09
2.99111e+09
2.9911e+09
2.99109e+09
2.9916e+09
2.99152e+09
2.99145e+09
2.99139e+09
2.99134e+09
2.99129e+09
2.99125e+09
2.99122e+09
2.99119e+09
2.99117e+09
2.99115e+09
2.99113e+09
2.99111e+09
2.9911e+09
2.99109e+09
2.99169e+09
2.9916e+09
2.99151e+09
2.99144e+09
2.99138e+09
2.99133e+09
2.99129e+09
2.99125e+09
2.99121e+09
2.99118e+09
2.99116e+09
2.99114e+09
2.99112e+09
2.9911e+09
2.99109e+09
2.9918e+09
2.99169e+09
2.9916e+09
2.99151e+09
2.99144e+09
2.99138e+09
2.99133e+09
2.99128e+09
2.99124e+09
2.9912e+09
2.99117e+09
2.99115e+09
2.99113e+09
2.99111e+09
2.99109e+09
2.99195e+09
2.99182e+09
2.9917e+09
2.9916e+09
2.99151e+09
2.99144e+09
2.99137e+09
2.99132e+09
2.99127e+09
2.99123e+09
2.99119e+09
2.99116e+09
2.99114e+09
2.99111e+09
2.99109e+09
2.99213e+09
2.99197e+09
2.99183e+09
2.99171e+09
2.99161e+09
2.99152e+09
2.99144e+09
2.99137e+09
2.99131e+09
2.99126e+09
2.99122e+09
2.99118e+09
2.99115e+09
2.99112e+09
2.99109e+09
2.99236e+09
2.99217e+09
2.992e+09
2.99186e+09
2.99173e+09
2.99162e+09
2.99152e+09
2.99144e+09
2.99136e+09
2.9913e+09
2.99125e+09
2.9912e+09
2.99116e+09
2.99113e+09
2.9911e+09
2.99266e+09
2.99243e+09
2.99222e+09
2.99204e+09
2.99188e+09
2.99175e+09
2.99163e+09
2.99152e+09
2.99143e+09
2.99136e+09
2.99129e+09
2.99123e+09
2.99118e+09
2.99114e+09
2.9911e+09
2.99305e+09
2.99276e+09
2.99251e+09
2.99229e+09
2.99209e+09
2.99192e+09
2.99177e+09
2.99164e+09
2.99153e+09
2.99143e+09
2.99134e+09
2.99127e+09
2.99121e+09
2.99115e+09
2.9911e+09
2.99356e+09
2.99322e+09
2.9929e+09
2.99262e+09
2.99237e+09
2.99216e+09
2.99196e+09
2.9918e+09
2.99165e+09
2.99153e+09
2.99142e+09
2.99132e+09
2.99124e+09
2.99117e+09
2.99111e+09
2.99426e+09
2.99383e+09
2.99344e+09
2.99309e+09
2.99277e+09
2.99249e+09
2.99224e+09
2.99202e+09
2.99183e+09
2.99167e+09
2.99152e+09
2.9914e+09
2.99129e+09
2.9912e+09
2.99112e+09
2.9952e+09
2.99469e+09
2.9942e+09
2.99375e+09
2.99334e+09
2.99297e+09
2.99264e+09
2.99235e+09
2.9921e+09
2.99188e+09
2.99168e+09
2.99151e+09
2.99137e+09
2.99124e+09
2.99113e+09
2.99652e+09
2.99591e+09
2.99531e+09
2.99474e+09
2.9942e+09
2.99371e+09
2.99327e+09
2.99287e+09
2.99251e+09
2.9922e+09
2.99193e+09
2.99169e+09
2.99149e+09
2.99131e+09
2.99115e+09
2.99835e+09
2.99766e+09
2.99696e+09
2.99625e+09
2.99556e+09
2.9949e+09
2.99428e+09
2.99372e+09
2.9932e+09
2.99275e+09
2.99235e+09
2.992e+09
2.99169e+09
2.99142e+09
2.99119e+09
3.00088e+09
3.00019e+09
2.99943e+09
2.99863e+09
2.99778e+09
2.99693e+09
2.99608e+09
2.99526e+09
2.99449e+09
2.99378e+09
2.99314e+09
2.99258e+09
2.99207e+09
2.99164e+09
2.99126e+09
3.00424e+09
3.00373e+09
3.00313e+09
3.00243e+09
3.00161e+09
3.00068e+09
2.99964e+09
2.99852e+09
2.99732e+09
2.99612e+09
2.99497e+09
2.99392e+09
2.99297e+09
2.99214e+09
2.99142e+09
3.27212e+09
3.25781e+09
3.23939e+09
3.21776e+09
3.19179e+09
3.15054e+09
3.10006e+09
3.02231e+09
3.00587e+09
3.00344e+09
3.00066e+09
2.99796e+09
2.99564e+09
2.99363e+09
2.99189e+09
3.8922e+09
3.89131e+09
3.88872e+09
3.88347e+09
3.88472e+09
3.88783e+09
3.88145e+09
3.87183e+09
3.86261e+09
3.84854e+09
3.82802e+09
3.09246e+09
3.00242e+09
2.99754e+09
2.99314e+09
3.89011e+09
3.89093e+09
3.8899e+09
3.88757e+09
3.88496e+09
3.8837e+09
3.88296e+09
3.882e+09
3.88127e+09
3.88224e+09
3.88969e+09
3.88877e+09
3.86451e+09
3.82794e+09
3.00322e+09
3.87304e+09
3.8764e+09
3.87726e+09
3.87683e+09
3.8765e+09
3.87679e+09
3.87762e+09
3.87871e+09
3.87947e+09
3.88112e+09
3.88687e+09
3.88629e+09
3.86593e+09
3.83075e+09
3.00411e+09
3.85898e+09
3.86243e+09
3.86424e+09
3.86561e+09
3.86767e+09
3.86989e+09
3.87174e+09
3.87336e+09
3.87514e+09
3.87827e+09
3.88376e+09
3.88241e+09
3.86266e+09
3.82911e+09
3.00374e+09
3.85444e+09
3.85503e+09
3.85593e+09
3.8579e+09
3.86079e+09
3.8636e+09
3.86584e+09
3.86767e+09
3.8701e+09
3.8742e+09
3.87975e+09
3.87801e+09
3.85875e+09
3.82683e+09
3.0032e+09
3.85537e+09
3.85504e+09
3.85532e+09
3.85656e+09
3.85824e+09
3.85994e+09
3.86137e+09
3.86307e+09
3.86622e+09
3.87159e+09
3.87745e+09
3.87407e+09
3.8534e+09
3.82287e+09
3.00214e+09
3.85804e+09
3.85786e+09
3.85777e+09
3.85811e+09
3.859e+09
3.86007e+09
3.86098e+09
3.86255e+09
3.86641e+09
3.87239e+09
3.87612e+09
3.86827e+09
3.84579e+09
3.81773e+09
3.00083e+09
3.85869e+09
3.85926e+09
3.8597e+09
3.85997e+09
3.86032e+09
3.86071e+09
3.86157e+09
3.86417e+09
3.8694e+09
3.87495e+09
3.87469e+09
3.8601e+09
3.83636e+09
3.81168e+09
2.99935e+09
3.85795e+09
3.85824e+09
3.85877e+09
3.8597e+09
3.86076e+09
3.86181e+09
3.86401e+09
3.8685e+09
3.8738e+09
3.87548e+09
3.86693e+09
3.84667e+09
3.82343e+09
3.59225e+09
2.99701e+09
3.85768e+09
3.85824e+09
3.85817e+09
3.85828e+09
3.85938e+09
3.86168e+09
3.8652e+09
3.87045e+09
3.87566e+09
3.87608e+09
3.86591e+09
3.84651e+09
3.8237e+09
3.41202e+09
2.99675e+09
3.85714e+09
3.85832e+09
3.85886e+09
3.85863e+09
3.85844e+09
3.85969e+09
3.86339e+09
3.8693e+09
3.87559e+09
3.877e+09
3.86762e+09
3.84817e+09
3.82396e+09
3.18142e+09
2.99642e+09
3.85666e+09
3.85749e+09
3.8583e+09
3.85895e+09
3.85916e+09
3.85949e+09
3.86141e+09
3.86542e+09
3.8703e+09
3.8733e+09
3.86722e+09
3.84822e+09
3.82309e+09
3.03261e+09
2.99621e+09
3.85761e+09
3.8579e+09
3.85836e+09
3.85881e+09
3.8592e+09
3.85913e+09
3.85905e+09
3.86212e+09
3.87043e+09
3.8762e+09
3.86613e+09
3.84244e+09
3.81845e+09
3.01108e+09
2.99617e+09
3.85694e+09
3.8571e+09
3.85717e+09
3.85759e+09
3.85836e+09
3.8593e+09
3.86116e+09
3.86499e+09
3.86754e+09
3.85923e+09
3.84003e+09
3.81997e+09
3.62205e+09
3.00166e+09
2.99443e+09
3.85489e+09
3.85509e+09
3.85647e+09
3.85789e+09
3.86003e+09
3.86224e+09
3.864e+09
3.86435e+09
3.85973e+09
3.8491e+09
3.83626e+09
3.82297e+09
3.80976e+09
3.00516e+09
2.9956e+09
3.87121e+09
3.87074e+09
3.8706e+09
3.87026e+09
3.86998e+09
3.86913e+09
3.86728e+09
3.86386e+09
3.85882e+09
3.85226e+09
3.84493e+09
3.83568e+09
3.82375e+09
3.80852e+09
2.99981e+09
2.99122e+09
2.99119e+09
2.99117e+09
2.99116e+09
2.99114e+09
2.99113e+09
2.99112e+09
2.99112e+09
2.99111e+09
2.9911e+09
2.9911e+09
2.99109e+09
2.99109e+09
2.99109e+09
2.99108e+09
2.99125e+09
2.99122e+09
2.99119e+09
2.99117e+09
2.99116e+09
2.99114e+09
2.99113e+09
2.99112e+09
2.99111e+09
2.99111e+09
2.9911e+09
2.9911e+09
2.99109e+09
2.99109e+09
2.99108e+09
2.99129e+09
2.99125e+09
2.99122e+09
2.9912e+09
2.99118e+09
2.99116e+09
2.99115e+09
2.99113e+09
2.99112e+09
2.99111e+09
2.99111e+09
2.9911e+09
2.99109e+09
2.99109e+09
2.99108e+09
2.99132e+09
2.99128e+09
2.99125e+09
2.99122e+09
2.9912e+09
2.99118e+09
2.99116e+09
2.99114e+09
2.99113e+09
2.99112e+09
2.99111e+09
2.9911e+09
2.9911e+09
2.99109e+09
2.99109e+09
2.99136e+09
2.99132e+09
2.99128e+09
2.99125e+09
2.99122e+09
2.99119e+09
2.99117e+09
2.99116e+09
2.99114e+09
2.99113e+09
2.99112e+09
2.99111e+09
2.9911e+09
2.99109e+09
2.99109e+09
2.99141e+09
2.99136e+09
2.99131e+09
2.99127e+09
2.99124e+09
2.99121e+09
2.99119e+09
2.99117e+09
2.99115e+09
2.99114e+09
2.99112e+09
2.99111e+09
2.9911e+09
2.99109e+09
2.99109e+09
2.99146e+09
2.9914e+09
2.99135e+09
2.99131e+09
2.99127e+09
2.99124e+09
2.99121e+09
2.99118e+09
2.99116e+09
2.99114e+09
2.99113e+09
2.99112e+09
2.9911e+09
2.9911e+09
2.99109e+09
2.99152e+09
2.99145e+09
2.99139e+09
2.99134e+09
2.9913e+09
2.99126e+09
2.99123e+09
2.9912e+09
2.99118e+09
2.99116e+09
2.99114e+09
2.99112e+09
2.99111e+09
2.9911e+09
2.99109e+09
2.9916e+09
2.99152e+09
2.99145e+09
2.99139e+09
2.99134e+09
2.99129e+09
2.99125e+09
2.99122e+09
2.99119e+09
2.99117e+09
2.99115e+09
2.99113e+09
2.99111e+09
2.9911e+09
2.99109e+09
2.99169e+09
2.9916e+09
2.99151e+09
2.99144e+09
2.99138e+09
2.99133e+09
2.99129e+09
2.99125e+09
2.99121e+09
2.99118e+09
2.99116e+09
2.99114e+09
2.99112e+09
2.9911e+09
2.99109e+09
2.9918e+09
2.99169e+09
2.9916e+09
2.99151e+09
2.99144e+09
2.99138e+09
2.99132e+09
2.99128e+09
2.99124e+09
2.9912e+09
2.99117e+09
2.99115e+09
2.99113e+09
2.99111e+09
2.99109e+09
2.99195e+09
2.99181e+09
2.9917e+09
2.9916e+09
2.99151e+09
2.99144e+09
2.99137e+09
2.99132e+09
2.99127e+09
2.99123e+09
2.99119e+09
2.99116e+09
2.99113e+09
2.99111e+09
2.99109e+09
2.99213e+09
2.99197e+09
2.99183e+09
2.99171e+09
2.99161e+09
2.99152e+09
2.99144e+09
2.99137e+09
2.99131e+09
2.99126e+09
2.99122e+09
2.99118e+09
2.99115e+09
2.99112e+09
2.99109e+09
2.99236e+09
2.99217e+09
2.992e+09
2.99185e+09
2.99173e+09
2.99161e+09
2.99152e+09
2.99144e+09
2.99136e+09
2.9913e+09
2.99125e+09
2.9912e+09
2.99116e+09
2.99113e+09
2.9911e+09
2.99266e+09
2.99242e+09
2.99222e+09
2.99204e+09
2.99188e+09
2.99174e+09
2.99162e+09
2.99152e+09
2.99143e+09
2.99135e+09
2.99129e+09
2.99123e+09
2.99118e+09
2.99114e+09
2.9911e+09
2.99304e+09
2.99276e+09
2.99251e+09
2.99229e+09
2.99209e+09
2.99192e+09
2.99177e+09
2.99164e+09
2.99152e+09
2.99143e+09
2.99134e+09
2.99127e+09
2.99121e+09
2.99115e+09
2.9911e+09
2.99356e+09
2.99321e+09
2.9929e+09
2.99262e+09
2.99237e+09
2.99215e+09
2.99196e+09
2.9918e+09
2.99165e+09
2.99153e+09
2.99142e+09
2.99132e+09
2.99124e+09
2.99117e+09
2.99111e+09
2.99425e+09
2.99383e+09
2.99344e+09
2.99308e+09
2.99277e+09
2.99248e+09
2.99224e+09
2.99202e+09
2.99183e+09
2.99167e+09
2.99152e+09
2.9914e+09
2.99129e+09
2.9912e+09
2.99112e+09
2.9952e+09
2.99468e+09
2.9942e+09
2.99375e+09
2.99334e+09
2.99297e+09
2.99264e+09
2.99235e+09
2.99209e+09
2.99187e+09
2.99168e+09
2.99151e+09
2.99137e+09
2.99124e+09
2.99113e+09
2.99651e+09
2.9959e+09
2.9953e+09
2.99473e+09
2.99419e+09
2.9937e+09
2.99326e+09
2.99286e+09
2.99251e+09
2.9922e+09
2.99193e+09
2.99169e+09
2.99148e+09
2.99131e+09
2.99115e+09
2.99834e+09
2.99765e+09
2.99694e+09
2.99623e+09
2.99554e+09
2.99488e+09
2.99427e+09
2.9937e+09
2.99319e+09
2.99274e+09
2.99234e+09
2.99199e+09
2.99168e+09
2.99142e+09
2.99119e+09
3.00086e+09
3.00017e+09
2.99941e+09
2.9986e+09
2.99776e+09
2.9969e+09
2.99606e+09
2.99524e+09
2.99447e+09
2.99377e+09
2.99313e+09
2.99257e+09
2.99207e+09
2.99163e+09
2.99126e+09
3.00422e+09
3.00371e+09
3.0031e+09
3.0024e+09
3.00158e+09
3.00065e+09
2.99961e+09
2.99849e+09
2.99729e+09
2.99609e+09
2.99494e+09
2.9939e+09
2.99296e+09
2.99214e+09
2.99142e+09
3.26892e+09
3.25117e+09
3.23164e+09
3.21025e+09
3.18441e+09
3.14245e+09
3.0912e+09
3.01776e+09
3.00554e+09
3.00293e+09
3.00013e+09
2.99766e+09
2.99547e+09
2.99354e+09
2.99186e+09
3.89335e+09
3.89264e+09
3.89074e+09
3.88478e+09
3.88145e+09
3.88541e+09
3.88347e+09
3.87128e+09
3.85539e+09
3.83198e+09
3.66419e+09
3.00648e+09
3.00169e+09
2.99711e+09
2.993e+09
3.88085e+09
3.88394e+09
3.88617e+09
3.88592e+09
3.88395e+09
3.8827e+09
3.88203e+09
3.88106e+09
3.87998e+09
3.88082e+09
3.8874e+09
3.88643e+09
3.86127e+09
3.82526e+09
3.0025e+09
3.8604e+09
3.86627e+09
3.87141e+09
3.87456e+09
3.8761e+09
3.87678e+09
3.87718e+09
3.87785e+09
3.87816e+09
3.87915e+09
3.88467e+09
3.88524e+09
3.86572e+09
3.83039e+09
3.00394e+09
3.85458e+09
3.85717e+09
3.86137e+09
3.86512e+09
3.86815e+09
3.87053e+09
3.87223e+09
3.87361e+09
3.87512e+09
3.87801e+09
3.88329e+09
3.8815e+09
3.86101e+09
3.82765e+09
3.00333e+09
3.85609e+09
3.85687e+09
3.85799e+09
3.86031e+09
3.86372e+09
3.8666e+09
3.86867e+09
3.87008e+09
3.87197e+09
3.87575e+09
3.8806e+09
3.87742e+09
3.85721e+09
3.82576e+09
3.00296e+09
3.85727e+09
3.85795e+09
3.85843e+09
3.86015e+09
3.86254e+09
3.8648e+09
3.86609e+09
3.8669e+09
3.8694e+09
3.87355e+09
3.87742e+09
3.87248e+09
3.85219e+09
3.82263e+09
3.00217e+09
3.85813e+09
3.85897e+09
3.85962e+09
3.86108e+09
3.86326e+09
3.86541e+09
3.8667e+09
3.86702e+09
3.86786e+09
3.87156e+09
3.8763e+09
3.87233e+09
3.85104e+09
3.82084e+09
3.0015e+09
3.85993e+09
3.861e+09
3.86219e+09
3.86346e+09
3.86494e+09
3.86616e+09
3.86657e+09
3.8669e+09
3.86951e+09
3.87399e+09
3.87487e+09
3.86032e+09
3.83482e+09
3.80932e+09
2.99856e+09
3.86009e+09
3.86124e+09
3.86275e+09
3.8645e+09
3.8658e+09
3.86637e+09
3.86709e+09
3.86951e+09
3.8732e+09
3.87395e+09
3.86369e+09
3.84283e+09
3.82077e+09
3.59619e+09
2.99701e+09
3.85879e+09
3.86016e+09
3.86136e+09
3.8629e+09
3.86452e+09
3.86611e+09
3.86829e+09
3.87244e+09
3.87626e+09
3.8749e+09
3.8625e+09
3.8428e+09
3.82155e+09
3.38186e+09
2.99671e+09
3.85696e+09
3.85842e+09
3.85962e+09
3.8607e+09
3.86184e+09
3.86364e+09
3.86686e+09
3.87234e+09
3.8779e+09
3.8775e+09
3.86604e+09
3.84619e+09
3.8228e+09
3.14901e+09
2.99637e+09
3.85652e+09
3.85709e+09
3.85789e+09
3.85901e+09
3.86004e+09
3.86136e+09
3.86408e+09
3.86837e+09
3.87258e+09
3.87433e+09
3.8666e+09
3.84723e+09
3.82251e+09
3.03165e+09
2.99621e+09
3.85759e+09
3.85773e+09
3.85801e+09
3.85841e+09
3.85902e+09
3.85944e+09
3.86035e+09
3.86409e+09
3.87218e+09
3.87646e+09
3.86506e+09
3.84119e+09
3.81772e+09
3.01649e+09
2.99616e+09
3.85698e+09
3.85702e+09
3.85709e+09
3.85745e+09
3.85819e+09
3.85943e+09
3.86161e+09
3.86536e+09
3.86742e+09
3.85808e+09
3.83867e+09
3.81926e+09
3.63769e+09
3.00171e+09
2.99445e+09
3.85478e+09
3.85509e+09
3.85617e+09
3.85753e+09
3.85955e+09
3.86175e+09
3.86356e+09
3.86388e+09
3.85896e+09
3.84818e+09
3.83549e+09
3.82249e+09
3.81039e+09
3.03193e+09
2.99621e+09
3.87091e+09
3.87023e+09
3.86994e+09
3.86958e+09
3.86931e+09
3.86842e+09
3.8665e+09
3.86308e+09
3.85805e+09
3.85159e+09
3.84439e+09
3.83525e+09
3.8235e+09
3.80843e+09
2.99979e+09
2.99126e+09
2.99123e+09
2.9912e+09
2.99118e+09
2.99116e+09
2.99115e+09
2.99114e+09
2.99113e+09
2.99112e+09
2.99111e+09
2.9911e+09
2.9911e+09
2.99109e+09
2.99109e+09
2.99108e+09
2.99128e+09
2.99124e+09
2.99121e+09
2.99119e+09
2.99117e+09
2.99116e+09
2.99114e+09
2.99113e+09
2.99112e+09
2.99111e+09
2.99111e+09
2.9911e+09
2.99109e+09
2.99109e+09
2.99108e+09
2.9913e+09
2.99126e+09
2.99123e+09
2.99121e+09
2.99119e+09
2.99117e+09
2.99115e+09
2.99114e+09
2.99113e+09
2.99112e+09
2.99111e+09
2.9911e+09
2.99109e+09
2.99109e+09
2.99108e+09
2.99133e+09
2.99129e+09
2.99126e+09
2.99123e+09
2.9912e+09
2.99118e+09
2.99116e+09
2.99115e+09
2.99113e+09
2.99112e+09
2.99111e+09
2.9911e+09
2.9911e+09
2.99109e+09
2.99109e+09
2.99137e+09
2.99132e+09
2.99128e+09
2.99125e+09
2.99122e+09
2.9912e+09
2.99118e+09
2.99116e+09
2.99114e+09