/*--------------------------------*- C++ -*----------------------------------*\
  =========                 |
  \\      /  F ield         | OpenFOAM: The Open Source CFD Toolbox
   \\    /   O peration     | Website:  https://openfoam.org
    \\  /    A nd           | Version:  6
     \\/     M anipulation  |
\*---------------------------------------------------------------------------*/
FoamFile
{
    version     2.0;
    format      ascii;
    class       volScalarField;
    location    "924.998729937416215";
    object      p;
}
// * * * * * * * * * * * * * * * * * * * * * * * * * * * * * * * * * * * * * //

dimensions      [0 2 -2 0 0 0 0];

internalField   nonuniform List<scalar> 
120400
(
0
-1.79165
-2.52092
-2.87113
-3.06061
-3.17186
-3.24079
-3.28492
-3.31363
-3.33237
-3.34446
-3.35205
-3.35655
-3.35895
-3.35991
-2.78888
-2.95889
-3.12259
-3.23938
-3.3187
-3.37232
-3.40867
-3.43337
-3.45008
-3.46127
-3.46862
-3.47328
-3.47606
-3.47755
-3.47814
-3.46124
-3.47398
-3.50598
-3.53757
-3.56344
-3.58314
-3.5976
-3.60795
-3.61521
-3.62019
-3.62351
-3.62564
-3.62692
-3.6276
-3.62787
-3.75111
-3.74422
-3.74697
-3.75303
-3.75942
-3.76498
-3.7694
-3.77274
-3.77516
-3.77686
-3.77801
-3.77875
-3.7792
-3.77944
-3.77953
-3.93265
-3.9234
-3.91928
-3.91788
-3.91775
-3.91812
-3.91863
-3.9191
-3.91949
-3.91977
-3.91998
-3.92011
-3.92019
-3.92023
-3.92025
-4.07013
-4.06154
-4.05615
-4.05282
-4.05074
-4.04943
-4.0486
-4.04806
-4.0477
-4.04747
-4.04733
-4.04723
-4.04718
-4.04715
-4.04713
-4.18487
-4.17753
-4.17244
-4.16892
-4.16648
-4.1648
-4.16363
-4.16282
-4.16226
-4.16189
-4.16164
-4.16148
-4.16138
-4.16133
-4.16131
-4.28597
-4.27989
-4.27549
-4.27232
-4.27006
-4.26844
-4.2673
-4.2665
-4.26594
-4.26556
-4.26531
-4.26515
-4.26505
-4.265
-4.26497
-4.37804
-4.37305
-4.36938
-4.36669
-4.36474
-4.36333
-4.36233
-4.36162
-4.36113
-4.3608
-4.36057
-4.36043
-4.36034
-4.3603
-4.36027
-4.46369
-4.45963
-4.4566
-4.45437
-4.45274
-4.45156
-4.45072
-4.45013
-4.44971
-4.44943
-4.44924
-4.44912
-4.44905
-4.44901
-4.44899
-4.5446
-4.54128
-4.5388
-4.53697
-4.53563
-4.53466
-4.53396
-4.53347
-4.53313
-4.53289
-4.53274
-4.53264
-4.53258
-4.53254
-4.53253
-4.62186
-4.61915
-4.61712
-4.61562
-4.61453
-4.61373
-4.61316
-4.61276
-4.61248
-4.61229
-4.61216
-4.61208
-4.61203
-4.612
-4.61199
-4.69629
-4.69407
-4.69241
-4.69119
-4.69029
-4.68964
-4.68918
-4.68885
-4.68862
-4.68847
-4.68836
-4.6883
-4.68826
-4.68824
-4.68822
-4.76846
-4.76665
-4.76529
-4.76429
-4.76356
-4.76303
-4.76265
-4.76239
-4.7622
-4.76208
-4.76199
-4.76194
-4.76191
-4.76189
-4.76188
-4.83884
-4.83735
-4.83625
-4.83543
-4.83484
-4.83441
-4.8341
-4.83388
-4.83373
-4.83363
-4.83356
-4.83352
-4.83349
-4.83348
-4.83347
-4.90776
-4.90656
-4.90566
-4.90499
-4.90451
-4.90416
-4.90391
-4.90374
-4.90362
-4.90353
-4.90348
-4.90345
-4.90343
-4.90341
-4.90341
-4.97553
-4.97455
-4.97382
-4.97329
-4.9729
-4.97261
-4.97241
-4.97227
-4.97218
-4.97211
-4.97207
-4.97204
-4.97202
-4.97201
-4.97201
-5.04238
-5.04159
-5.041
-5.04057
-5.04025
-5.04002
-5.03986
-5.03974
-5.03966
-5.03961
-5.03958
-5.03955
-5.03954
-5.03953
-5.03953
-5.10852
-5.10789
-5.10741
-5.10705
-5.10679
-5.1066
-5.10646
-5.10636
-5.10629
-5.10624
-5.10621
-5.10619
-5.10618
-5.10618
-5.10617
-5.17413
-5.17363
-5.17324
-5.17293
-5.1727
-5.17252
-5.17238
-5.17229
-5.17221
-5.17216
-5.17213
-5.17211
-5.1721
-5.17209
-5.17209
-5.23939
-5.23901
-5.23869
-5.23842
-5.23818
-5.23797
-5.2378
-5.23765
-5.23754
-5.23746
-5.2374
-5.23736
-5.23734
-5.23733
-5.23732
-5.30449
-5.30425
-5.30403
-5.3038
-5.30355
-5.30327
-5.30295
-5.3026
-5.30228
-5.30204
-5.30186
-5.30175
-5.30168
-5.30164
-5.30162
-5.36956
-5.36953
-5.36951
-5.36951
-5.3695
-5.36949
-5.36944
-5.36775
-5.36611
-5.36507
-5.36442
-5.36401
-5.36377
-5.36364
-5.36359
-5.41861
-5.41858
-5.41856
-5.41856
-5.41855
-5.41854
-5.41853
-5.41853
-5.41852
-5.41852
-5.41852
-5.41853
-5.41836
-5.41827
-5.41823
-5.46763
-5.46761
-5.4676
-5.46759
-5.46759
-5.46759
-5.46759
-5.46759
-5.46759
-5.46759
-5.46759
-5.46759
-5.46753
-5.46756
-5.46756
-5.51672
-5.51669
-5.51667
-5.51666
-5.51665
-5.51664
-5.51663
-5.51663
-5.51662
-5.51662
-5.51662
-5.51662
-5.51662
-5.51662
-5.51661
-5.5658
-5.56578
-5.56576
-5.56574
-5.56572
-5.5657
-5.56569
-5.56569
-5.56568
-5.56568
-5.56567
-5.56567
-5.56567
-5.56567
-5.56567
-5.6149
-5.61486
-5.61484
-5.61482
-5.6148
-5.61478
-5.61477
-5.61476
-5.61475
-5.61475
-5.61475
-5.61475
-5.61474
-5.61474
-5.61474
-5.664
-5.66397
-5.66395
-5.66392
-5.66389
-5.66387
-5.66386
-5.66385
-5.66385
-5.66384
-5.66384
-5.66384
-5.66384
-5.66383
-5.66383
-5.71308
-5.71306
-5.71304
-5.71303
-5.71301
-5.713
-5.71298
-5.71297
-5.71296
-5.71296
-5.71295
-5.71295
-5.71295
-5.71295
-5.71295
-5.76214
-5.76213
-5.76212
-5.7621
-5.7621
-5.76209
-5.76208
-5.76207
-5.76206
-5.76205
-5.76205
-5.76205
-5.76205
-5.76205
-5.76205
-5.81119
-5.81118
-5.81117
-5.81116
-5.81115
-5.81115
-5.81114
-5.81114
-5.81114
-5.81113
-5.81113
-5.81113
-5.81113
-5.81113
-5.81113
-5.86023
-5.86022
-5.86022
-5.86021
-5.86021
-5.86021
-5.8602
-5.8602
-5.8602
-5.8602
-5.8602
-5.8602
-5.8602
-5.8602
-5.8602
-5.90928
-5.90927
-5.90926
-5.90926
-5.90926
-5.90926
-5.90926
-5.90926
-5.90926
-5.90926
-5.90926
-5.90926
-5.90926
-5.90926
-5.90926
-5.95832
-5.95832
-5.95831
-5.9583
-5.9583
-5.9583
-5.9583
-5.9583
-5.9583
-5.9583
-5.9583
-5.9583
-5.9583
-5.9583
-5.9583
-6.00737
-6.00736
-6.00735
-6.00735
-6.00734
-6.00734
-6.00734
-6.00734
-6.00734
-6.00734
-6.00734
-6.00734
-6.00734
-6.00734
-6.00734
-6.05643
-6.05642
-6.05641
-6.0564
-6.05639
-6.05638
-6.05638
-6.05638
-6.05637
-6.05637
-6.05637
-6.05637
-6.05637
-6.05637
-6.05637
-6.10549
-6.10547
-6.10546
-6.10545
-6.10544
-6.10543
-6.10543
-6.10542
-6.10542
-6.10542
-6.10542
-6.10542
-6.10542
-6.10542
-6.10542
-6.15453
-6.15451
-6.15449
-6.15447
-6.15446
-6.15445
-6.15445
-6.15445
-6.15445
-6.15445
-6.15445
-6.15445
-6.15445
-6.15445
-6.15445
-6.20355
-6.20352
-6.2035
-6.20348
-6.20347
-6.20347
-6.20347
-6.20348
-6.20349
-6.2035
-6.20351
-6.20352
-6.20352
-6.20353
-6.20354
-2.3993
-2.67023
-2.91211
-3.07686
-3.1849
-3.25602
-3.30329
-3.33492
-3.3561
-3.37016
-3.37933
-3.38511
-3.38855
-3.39038
-3.3911
-3.12901
-3.18154
-3.26175
-3.33126
-3.38394
-3.422
-3.4489
-3.46766
-3.48057
-3.4893
-3.49507
-3.49873
-3.50092
-3.50208
-3.50254
-3.53162
-3.53431
-3.55343
-3.5751
-3.59408
-3.60911
-3.62041
-3.62862
-3.63443
-3.63843
-3.6411
-3.64281
-3.64383
-3.64437
-3.64458
-3.77316
-3.76542
-3.76605
-3.77001
-3.77468
-3.77893
-3.78239
-3.78502
-3.78695
-3.7883
-3.78921
-3.7898
-3.79015
-3.79033
-3.7904
-3.94234
-3.9331
-3.92861
-3.92673
-3.92616
-3.92616
-3.92636
-3.92661
-3.92683
-3.927
-3.92712
-3.9272
-3.92724
-3.92726
-3.92727
-4.07542
-4.0669
-4.06145
-4.058
-4.0558
-4.05438
-4.05345
-4.05284
-4.05243
-4.05215
-4.05197
-4.05186
-4.05179
-4.05174
-4.05172
-4.18816
-4.18086
-4.17576
-4.17221
-4.16974
-4.16801
-4.16681
-4.16598
-4.1654
-4.165
-4.16474
-4.16457
-4.16447
-4.16441
-4.16438
-4.28819
-4.28212
-4.27771
-4.27453
-4.27225
-4.27063
-4.26947
-4.26866
-4.26809
-4.2677
-4.26744
-4.26727
-4.26717
-4.26712
-4.26709
-4.3796
-4.37461
-4.37093
-4.36823
-4.36628
-4.36486
-4.36385
-4.36314
-4.36264
-4.3623
-4.36207
-4.36192
-4.36183
-4.36179
-4.36176
-4.46484
-4.46076
-4.45772
-4.45548
-4.45385
-4.45267
-4.45182
-4.45122
-4.4508
-4.45051
-4.45032
-4.4502
-4.45012
-4.45008
-4.45006
-4.54546
-4.54212
-4.53963
-4.53779
-4.53644
-4.53547
-4.53477
-4.53427
-4.53393
-4.53369
-4.53353
-4.53343
-4.53337
-4.53333
-4.53332
-4.62253
-4.61979
-4.61775
-4.61625
-4.61514
-4.61434
-4.61377
-4.61337
-4.61308
-4.61289
-4.61276
-4.61268
-4.61263
-4.6126
-4.61259
-4.6968
-4.69457
-4.6929
-4.69167
-4.69076
-4.69011
-4.68964
-4.68931
-4.68908
-4.68892
-4.68882
-4.68875
-4.68871
-4.68869
-4.68868
-4.76887
-4.76704
-4.76567
-4.76466
-4.76393
-4.7634
-4.76302
-4.76275
-4.76256
-4.76243
-4.76235
-4.76229
-4.76226
-4.76224
-4.76223
-4.83916
-4.83766
-4.83654
-4.83572
-4.83512
-4.83469
-4.83438
-4.83416
-4.83401
-4.83391
-4.83384
-4.8338
-4.83377
-4.83375
-4.83375
-4.90802
-4.9068
-4.90589
-4.90522
-4.90474
-4.90439
-4.90414
-4.90396
-4.90384
-4.90376
-4.9037
-4.90367
-4.90365
-4.90363
-4.90363
-4.97573
-4.97474
-4.97401
-4.97347
-4.97307
-4.97279
-4.97259
-4.97245
-4.97235
-4.97228
-4.97224
-4.97221
-4.97219
-4.97219
-4.97218
-5.04254
-5.04174
-5.04114
-5.04071
-5.04039
-5.04016
-5.03999
-5.03988
-5.0398
-5.03975
-5.03971
-5.03969
-5.03968
-5.03967
-5.03966
-5.10864
-5.108
-5.10751
-5.10715
-5.10689
-5.1067
-5.10656
-5.10646
-5.10639
-5.10634
-5.10631
-5.10629
-5.10628
-5.10627
-5.10627
-5.17421
-5.1737
-5.17331
-5.173
-5.17276
-5.17258
-5.17245
-5.17235
-5.17228
-5.17223
-5.17219
-5.17217
-5.17216
-5.17215
-5.17215
-5.23944
-5.23906
-5.23873
-5.23845
-5.23821
-5.238
-5.23782
-5.23768
-5.23756
-5.23748
-5.23742
-5.23738
-5.23736
-5.23734
-5.23734
-5.30451
-5.30427
-5.30404
-5.3038
-5.30355
-5.30326
-5.30293
-5.30257
-5.30225
-5.302
-5.30183
-5.30171
-5.30164
-5.30161
-5.30159
-5.36956
-5.36953
-5.36951
-5.3695
-5.36949
-5.36949
-5.36944
-5.36748
-5.3659
-5.36491
-5.36428
-5.36389
-5.36365
-5.36353
-5.36348
-5.41861
-5.41858
-5.41856
-5.41855
-5.41855
-5.41854
-5.41853
-5.41853
-5.41852
-5.41852
-5.41852
-5.41853
-5.41835
-5.41826
-5.41822
-5.46764
-5.46761
-5.4676
-5.46759
-5.46759
-5.46759
-5.46759
-5.46759
-5.46759
-5.46759
-5.46759
-5.46759
-5.46753
-5.46757
-5.46756
-5.51672
-5.51669
-5.51667
-5.51666
-5.51665
-5.51664
-5.51663
-5.51663
-5.51662
-5.51662
-5.51662
-5.51662
-5.51662
-5.51662
-5.51661
-5.56581
-5.56579
-5.56577
-5.56574
-5.56572
-5.56571
-5.5657
-5.56569
-5.56569
-5.56568
-5.56568
-5.56568
-5.56568
-5.56568
-5.56568
-5.61491
-5.61487
-5.61484
-5.61482
-5.6148
-5.61479
-5.61478
-5.61477
-5.61477
-5.61476
-5.61476
-5.61476
-5.61476
-5.61476
-5.61476
-5.66401
-5.66398
-5.66396
-5.66393
-5.66391
-5.66389
-5.66388
-5.66387
-5.66386
-5.66386
-5.66385
-5.66385
-5.66385
-5.66385
-5.66385
-5.71308
-5.71307
-5.71306
-5.71304
-5.71302
-5.71301
-5.71299
-5.71298
-5.71298
-5.71297
-5.71297
-5.71297
-5.71297
-5.71297
-5.71297
-5.76215
-5.76214
-5.76212
-5.76211
-5.7621
-5.76209
-5.76208
-5.76207
-5.76207
-5.76206
-5.76206
-5.76206
-5.76206
-5.76206
-5.76206
-5.8112
-5.81119
-5.81117
-5.81117
-5.81116
-5.81115
-5.81114
-5.81114
-5.81114
-5.81114
-5.81113
-5.81113
-5.81113
-5.81113
-5.81113
-5.86024
-5.86023
-5.86022
-5.86022
-5.86021
-5.86021
-5.86021
-5.8602
-5.8602
-5.8602
-5.8602
-5.8602
-5.8602
-5.8602
-5.8602
-5.90928
-5.90927
-5.90926
-5.90926
-5.90926
-5.90926
-5.90926
-5.90926
-5.90926
-5.90926
-5.90926
-5.90926
-5.90926
-5.90926
-5.90926
-5.95832
-5.95831
-5.9583
-5.9583
-5.9583
-5.9583
-5.9583
-5.9583
-5.9583
-5.9583
-5.9583
-5.9583
-5.9583
-5.9583
-5.9583
-6.00737
-6.00736
-6.00735
-6.00734
-6.00734
-6.00734
-6.00734
-6.00734
-6.00734
-6.00734
-6.00734
-6.00734
-6.00734
-6.00734
-6.00734
-6.05643
-6.05641
-6.05641
-6.0564
-6.05639
-6.05638
-6.05638
-6.05638
-6.05637
-6.05637
-6.05637
-6.05637
-6.05637
-6.05637
-6.05637
-6.10549
-6.10547
-6.10546
-6.10545
-6.10544
-6.10543
-6.10543
-6.10542
-6.10542
-6.10542
-6.10542
-6.10542
-6.10542
-6.10542
-6.10542
-6.15453
-6.15451
-6.15449
-6.15447
-6.15446
-6.15445
-6.15445
-6.15445
-6.15445
-6.15445
-6.15445
-6.15445
-6.15445
-6.15445
-6.15445
-6.20355
-6.20352
-6.2035
-6.20349
-6.20347
-6.20347
-6.20347
-6.20348
-6.20349
-6.2035
-6.20351
-6.20352
-6.20353
-6.20353
-6.20354
-3.10747
-3.15995
-3.23637
-3.30208
-3.35177
-3.38766
-3.41304
-3.43074
-3.44293
-3.45118
-3.45663
-3.46009
-3.46216
-3.46325
-3.46368
-3.38617
-3.39924
-3.43178
-3.46486
-3.49243
-3.51362
-3.52924
-3.54045
-3.54831
-3.5537
-3.55729
-3.55958
-3.56095
-3.56167
-3.56196
-3.62928
-3.62604
-3.63415
-3.64547
-3.65626
-3.66523
-3.67219
-3.67735
-3.68105
-3.68362
-3.68535
-3.68646
-3.68712
-3.68747
-3.68761
-3.81648
-3.80831
-3.80668
-3.80806
-3.8104
-3.81278
-3.81483
-3.81643
-3.81763
-3.81847
-3.81905
-3.81941
-3.81964
-3.81975
-3.8198
-3.96486
-3.95597
-3.9512
-3.9488
-3.94767
-3.94719
-3.94701
-3.94696
-3.94697
-3.94699
-3.94701
-3.94702
-3.94702
-3.94702
-3.94702
-4.08869
-4.08053
-4.0752
-4.07174
-4.06948
-4.06799
-4.06699
-4.06632
-4.06586
-4.06555
-4.06535
-4.06522
-4.06514
-4.06509
-4.06507
-4.19671
-4.18968
-4.18474
-4.18128
-4.17886
-4.17717
-4.17598
-4.17515
-4.17458
-4.17419
-4.17392
-4.17376
-4.17365
-4.1736
-4.17357
-4.29405
-4.28815
-4.28388
-4.28079
-4.27857
-4.27699
-4.27586
-4.27507
-4.27451
-4.27413
-4.27388
-4.27371
-4.27361
-4.27356
-4.27353
-4.3838
-4.37892
-4.37533
-4.3727
-4.37079
-4.36942
-4.36843
-4.36773
-4.36725
-4.36691
-4.36669
-4.36655
-4.36646
-4.36641
-4.36639
-4.46794
-4.46393
-4.46095
-4.45876
-4.45716
-4.456
-4.45517
-4.45458
-4.45417
-4.45389
-4.4537
-4.45357
-4.4535
-4.45346
-4.45344
-4.5478
-4.54451
-4.54205
-4.54024
-4.53892
-4.53796
-4.53727
-4.53678
-4.53644
-4.53621
-4.53605
-4.53595
-4.53589
-4.53586
-4.53584
-4.62433
-4.62162
-4.6196
-4.61811
-4.61702
-4.61623
-4.61567
-4.61527
-4.61499
-4.61479
-4.61466
-4.61458
-4.61453
-4.6145
-4.61449
-4.69821
-4.69598
-4.69433
-4.6931
-4.69221
-4.69156
-4.6911
-4.69077
-4.69055
-4.69039
-4.69029
-4.69022
-4.69018
-4.69016
-4.69014
-4.76997
-4.76814
-4.76679
-4.76578
-4.76505
-4.76453
-4.76415
-4.76388
-4.76369
-4.76356
-4.76348
-4.76342
-4.76339
-4.76337
-4.76336
-4.84003
-4.83853
-4.83742
-4.8366
-4.836
-4.83557
-4.83527
-4.83505
-4.8349
-4.8348
-4.83473
-4.83469
-4.83466
-4.83464
-4.83464
-4.90871
-4.90748
-4.90658
-4.90591
-4.90543
-4.90508
-4.90483
-4.90465
-4.90453
-4.90445
-4.90439
-4.90436
-4.90434
-4.90432
-4.90432
-4.97627
-4.97528
-4.97454
-4.974
-4.97361
-4.97333
-4.97313
-4.97299
-4.97289
-4.97283
-4.97278
-4.97275
-4.97274
-4.97273
-4.97272
-5.04296
-5.04215
-5.04156
-5.04112
-5.0408
-5.04057
-5.04041
-5.04029
-5.04021
-5.04016
-5.04012
-5.0401
-5.04008
-5.04008
-5.04007
-5.10895
-5.10831
-5.10782
-5.10746
-5.1072
-5.107
-5.10686
-5.10676
-5.1067
-5.10665
-5.10662
-5.1066
-5.10659
-5.10658
-5.10658
-5.17443
-5.17392
-5.17353
-5.17322
-5.17298
-5.1728
-5.17266
-5.17256
-5.17249
-5.17244
-5.1724
-5.17238
-5.17237
-5.17236
-5.17235
-5.23959
-5.2392
-5.23887
-5.23859
-5.23834
-5.23813
-5.23795
-5.2378
-5.23769
-5.2376
-5.23754
-5.2375
-5.23748
-5.23747
-5.23746
-5.30458
-5.30434
-5.3041
-5.30386
-5.3036
-5.3033
-5.30297
-5.30259
-5.30227
-5.30202
-5.30185
-5.30173
-5.30166
-5.30162
-5.30161
-5.36956
-5.36954
-5.36951
-5.3695
-5.3695
-5.36949
-5.36943
-5.36733
-5.36578
-5.3648
-5.36418
-5.3638
-5.36357
-5.36345
-5.3634
-5.41861
-5.41859
-5.41856
-5.41855
-5.41855
-5.41855
-5.41853
-5.41852
-5.41852
-5.41851
-5.41852
-5.41851
-5.41833
-5.41823
-5.41819
-5.46765
-5.46762
-5.4676
-5.46759
-5.46759
-5.46759
-5.46759
-5.46759
-5.46759
-5.46759
-5.46759
-5.46759
-5.46756
-5.46757
-5.46757
-5.51673
-5.5167
-5.51668
-5.51667
-5.51666
-5.51665
-5.51664
-5.51663
-5.51662
-5.51661
-5.51661
-5.51661
-5.51661
-5.51661
-5.51661
-5.56583
-5.5658
-5.56577
-5.56575
-5.56573
-5.56572
-5.56571
-5.5657
-5.56569
-5.56569
-5.56569
-5.56569
-5.56569
-5.56569
-5.56568
-5.61492
-5.61489
-5.61486
-5.61484
-5.61482
-5.6148
-5.61479
-5.61479
-5.61478
-5.61478
-5.61477
-5.61477
-5.61477
-5.61477
-5.61477
-5.66402
-5.66399
-5.66396
-5.66394
-5.66392
-5.66391
-5.6639
-5.66389
-5.66388
-5.66388
-5.66388
-5.66388
-5.66388
-5.66387
-5.66387
-5.71309
-5.71307
-5.71306
-5.71304
-5.71303
-5.71302
-5.71301
-5.713
-5.71299
-5.71299
-5.71298
-5.71298
-5.71298
-5.71298
-5.71298
-5.76216
-5.76214
-5.76212
-5.76211
-5.7621
-5.76209
-5.76209
-5.76208
-5.76208
-5.76207
-5.76207
-5.76207
-5.76207
-5.76207
-5.76207
-5.8112
-5.81119
-5.81118
-5.81117
-5.81116
-5.81116
-5.81115
-5.81114
-5.81114
-5.81114
-5.81114
-5.81114
-5.81114
-5.81114
-5.81114
-5.86025
-5.86024
-5.86023
-5.86022
-5.86022
-5.86022
-5.86021
-5.86021
-5.86021
-5.86021
-5.86021
-5.86021
-5.86021
-5.86021
-5.86021
-5.90928
-5.90927
-5.90927
-5.90926
-5.90926
-5.90926
-5.90926
-5.90926
-5.90926
-5.90926
-5.90926
-5.90926
-5.90926
-5.90926
-5.90926
-5.95832
-5.95831
-5.9583
-5.9583
-5.9583
-5.9583
-5.9583
-5.9583
-5.9583
-5.9583
-5.9583
-5.9583
-5.9583
-5.9583
-5.9583
-6.00737
-6.00736
-6.00735
-6.00734
-6.00734
-6.00734
-6.00734
-6.00734
-6.00734
-6.00734
-6.00734
-6.00734
-6.00734
-6.00734
-6.00734
-6.05643
-6.05642
-6.0564
-6.0564
-6.05639
-6.05638
-6.05638
-6.05638
-6.05638
-6.05637
-6.05637
-6.05637
-6.05637
-6.05637
-6.05637
-6.10549
-6.10548
-6.10547
-6.10545
-6.10544
-6.10544
-6.10543
-6.10542
-6.10542
-6.10542
-6.10542
-6.10542
-6.10542
-6.10542
-6.10542
-6.15453
-6.15451
-6.15449
-6.15447
-6.15446
-6.15445
-6.15445
-6.15445
-6.15445
-6.15445
-6.15445
-6.15445
-6.15445
-6.15445
-6.15445
-6.20355
-6.20353
-6.2035
-6.20349
-6.20348
-6.20347
-6.20347
-6.20348
-6.20349
-6.2035
-6.20351
-6.20352
-6.20353
-6.20353
-6.20354
-3.41782
-3.42714
-3.45118
-3.47597
-3.49685
-3.51304
-3.52506
-3.53373
-3.53984
-3.54404
-3.54684
-3.54863
-3.5497
-3.55027
-3.5505
-3.56309
-3.56316
-3.57434
-3.58807
-3.60062
-3.61083
-3.61865
-3.62441
-3.62853
-3.63138
-3.63329
-3.63452
-3.63526
-3.63564
-3.6358
-3.7226
-3.71669
-3.71832
-3.72277
-3.72771
-3.73211
-3.73567
-3.73837
-3.74035
-3.74174
-3.74267
-3.74328
-3.74364
-3.74383
-3.74391
-3.86766
-3.85955
-3.85641
-3.85578
-3.85629
-3.85713
-3.85797
-3.85868
-3.85923
-3.85963
-3.85991
-3.8601
-3.86021
-3.86027
-3.86029
-3.995
-3.98671
-3.98187
-3.97911
-3.97756
-3.97668
-3.97617
-3.97587
-3.97569
-3.97558
-3.9755
-3.97546
-3.97542
-3.97541
-3.9754
-4.10775
-4.10016
-4.09511
-4.09175
-4.0895
-4.08799
-4.08696
-4.08626
-4.08578
-4.08545
-4.08524
-4.0851
-4.08501
-4.08496
-4.08494
-4.2095
-4.2029
-4.19825
-4.19498
-4.19268
-4.19106
-4.18992
-4.18912
-4.18857
-4.18819
-4.18794
-4.18777
-4.18767
-4.18762
-4.18759
-4.30303
-4.29744
-4.29339
-4.29047
-4.28838
-4.28687
-4.2858
-4.28505
-4.28452
-4.28416
-4.28392
-4.28377
-4.28367
-4.28362
-4.28359
-4.39032
-4.38566
-4.38223
-4.37973
-4.37791
-4.3766
-4.37566
-4.375
-4.37453
-4.37421
-4.374
-4.37386
-4.37378
-4.37373
-4.37371
-4.4728
-4.46894
-4.46607
-4.46397
-4.46244
-4.46133
-4.46053
-4.45997
-4.45957
-4.4593
-4.45912
-4.45901
-4.45893
-4.45889
-4.45888
-4.5515
-4.5483
-4.54593
-4.54418
-4.5429
-4.54197
-4.54131
-4.54084
-4.54051
-4.54028
-4.54013
-4.54003
-4.53997
-4.53994
-4.53992
-4.62719
-4.62454
-4.62258
-4.62113
-4.62007
-4.61931
-4.61876
-4.61837
-4.61809
-4.61791
-4.61778
-4.6177
-4.61765
-4.61762
-4.61761
-4.70044
-4.69826
-4.69664
-4.69544
-4.69457
-4.69394
-4.69349
-4.69316
-4.69294
-4.69279
-4.69268
-4.69262
-4.69257
-4.69255
-4.69254
-4.77173
-4.76993
-4.76859
-4.76761
-4.7669
-4.76638
-4.76601
-4.76574
-4.76556
-4.76544
-4.76535
-4.7653
-4.76527
-4.76525
-4.76524
-4.84142
-4.83994
-4.83884
-4.83803
-4.83745
-4.83702
-4.83672
-4.83651
-4.83636
-4.83625
-4.83619
-4.83614
-4.83611
-4.8361
-4.83609
-4.9098
-4.90859
-4.90769
-4.90704
-4.90656
-4.90621
-4.90597
-4.90579
-4.90567
-4.90559
-4.90554
-4.9055
-4.90548
-4.90547
-4.90546
-4.97713
-4.97615
-4.97542
-4.97488
-4.97449
-4.97421
-4.97401
-4.97387
-4.97377
-4.97371
-4.97366
-4.97363
-4.97362
-4.97361
-4.9736
-5.04362
-5.04282
-5.04223
-5.04179
-5.04148
-5.04125
-5.04109
-5.04097
-5.04089
-5.04084
-5.0408
-5.04078
-5.04077
-5.04076
-5.04075
-5.10945
-5.10881
-5.10832
-5.10796
-5.1077
-5.1075
-5.10737
-5.10727
-5.1072
-5.10715
-5.10712
-5.1071
-5.10708
-5.10708
-5.10707
-5.17479
-5.17428
-5.17388
-5.17357
-5.17333
-5.17315
-5.17301
-5.17291
-5.17284
-5.17279
-5.17276
-5.17274
-5.17272
-5.17272
-5.17271
-5.23982
-5.23943
-5.23909
-5.23881
-5.23856
-5.23835
-5.23816
-5.23801
-5.2379
-5.23781
-5.23775
-5.23771
-5.23769
-5.23767
-5.23767
-5.3047
-5.30445
-5.30421
-5.30397
-5.3037
-5.3034
-5.30305
-5.30267
-5.30234
-5.3021
-5.30192
-5.30181
-5.30174
-5.3017
-5.30168
-5.36958
-5.36955
-5.36952
-5.3695
-5.36949
-5.36949
-5.36941
-5.36715
-5.36565
-5.3647
-5.36409
-5.36371
-5.36349
-5.36337
-5.36332
-5.41863
-5.4186
-5.41857
-5.41855
-5.41855
-5.41855
-5.41853
-5.41853
-5.41853
-5.41853
-5.41854
-5.41827
-5.41812
-5.41803
-5.418
-5.46766
-5.46763
-5.46761
-5.46759
-5.46759
-5.46759
-5.46759
-5.46759
-5.46759
-5.46759
-5.46759
-5.46758
-5.46757
-5.46758
-5.46758
-5.51675
-5.51672
-5.51669
-5.51668
-5.51667
-5.51666
-5.51665
-5.51664
-5.51663
-5.51663
-5.51663
-5.51662
-5.51662
-5.51662
-5.51662
-5.56584
-5.56582
-5.56579
-5.56577
-5.56575
-5.56573
-5.56572
-5.56571
-5.5657
-5.5657
-5.5657
-5.56569
-5.56569
-5.56569
-5.56569
-5.61493
-5.6149
-5.61487
-5.61485
-5.61483
-5.61482
-5.61481
-5.6148
-5.61479
-5.61479
-5.61479
-5.61479
-5.61479
-5.61478
-5.61478
-5.66402
-5.66399
-5.66397
-5.66395
-5.66393
-5.66392
-5.66391
-5.6639
-5.6639
-5.66389
-5.66389
-5.66389
-5.66389
-5.66389
-5.66389
-5.71309
-5.71307
-5.71305
-5.71304
-5.71303
-5.71302
-5.71301
-5.71301
-5.713
-5.713
-5.713
-5.713
-5.71299
-5.71299
-5.71299
-5.76217
-5.76215
-5.76213
-5.76211
-5.7621
-5.76209
-5.76209
-5.76208
-5.76208
-5.76207
-5.76207
-5.76207
-5.76207
-5.76207
-5.76207
-5.81122
-5.8112
-5.81119
-5.81118
-5.81117
-5.81116
-5.81115
-5.81115
-5.81114
-5.81114
-5.81114
-5.81114
-5.81114
-5.81114
-5.81114
-5.86026
-5.86025
-5.86024
-5.86023
-5.86023
-5.86022
-5.86022
-5.86022
-5.86022
-5.86022
-5.86022
-5.86021
-5.86021
-5.86021
-5.86022
-5.90929
-5.90928
-5.90927
-5.90927
-5.90927
-5.90927
-5.90927
-5.90927
-5.90927
-5.90927
-5.90927
-5.90927
-5.90927
-5.90927
-5.90927
-5.95832
-5.95831
-5.95831
-5.9583
-5.9583
-5.9583
-5.9583
-5.95831
-5.95831
-5.95831
-5.9583
-5.9583
-5.9583
-5.9583
-5.9583
-6.00737
-6.00736
-6.00735
-6.00735
-6.00734
-6.00734
-6.00734
-6.00734
-6.00734
-6.00734
-6.00734
-6.00734
-6.00734
-6.00734
-6.00734
-6.05643
-6.05642
-6.05641
-6.0564
-6.05639
-6.05639
-6.05639
-6.05638
-6.05638
-6.05638
-6.05638
-6.05638
-6.05638
-6.05638
-6.05638
-6.10549
-6.10548
-6.10547
-6.10546
-6.10545
-6.10544
-6.10543
-6.10543
-6.10543
-6.10543
-6.10543
-6.10543
-6.10543
-6.10543
-6.10543
-6.15453
-6.15452
-6.1545
-6.15448
-6.15447
-6.15446
-6.15446
-6.15446
-6.15446
-6.15446
-6.15446
-6.15446
-6.15446
-6.15446
-6.15446
-6.20356
-6.20353
-6.20351
-6.20349
-6.20348
-6.20348
-6.20348
-6.20349
-6.20349
-6.20351
-6.20351
-6.20352
-6.20353
-6.20354
-6.20354
-3.58991
-3.58817
-3.5945
-3.60304
-3.61112
-3.61782
-3.62301
-3.62687
-3.62965
-3.63158
-3.63288
-3.63371
-3.63421
-3.63448
-3.63459
-3.68686
-3.68227
-3.68447
-3.68911
-3.69403
-3.69833
-3.70178
-3.70439
-3.70629
-3.70763
-3.70853
-3.70911
-3.70946
-3.70965
-3.70972
-3.80246
-3.79564
-3.79397
-3.79471
-3.79626
-3.79792
-3.79937
-3.80053
-3.8014
-3.80203
-3.80245
-3.80273
-3.8029
-3.80299
-3.80303
-3.91847
-3.91077
-3.90691
-3.90516
-3.90448
-3.90432
-3.90438
-3.9045
-3.90462
-3.90473
-3.9048
-3.90486
-3.90489
-3.90491
-3.90491
-4.0281
-4.02053
-4.01586
-4.01299
-4.01121
-4.0101
-4.0094
-4.00894
-4.00864
-4.00844
-4.00831
-4.00823
-4.00818
-4.00815
-4.00814
-4.13011
-4.12319
-4.11851
-4.11536
-4.11321
-4.11174
-4.11073
-4.11004
-4.10956
-4.10923
-4.10902
-4.10888
-4.10879
-4.10874
-4.10872
-4.22514
-4.21908
-4.2148
-4.21178
-4.20965
-4.20815
-4.20709
-4.20634
-4.20583
-4.20547
-4.20524
-4.20508
-4.20499
-4.20494
-4.20491
-4.31431
-4.30912
-4.30538
-4.30268
-4.30074
-4.29935
-4.29836
-4.29766
-4.29717
-4.29684
-4.29661
-4.29647
-4.29638
-4.29633
-4.29631
-4.39867
-4.3943
-4.39109
-4.38876
-4.38707
-4.38586
-4.38498
-4.38437
-4.38393
-4.38364
-4.38344
-4.38331
-4.38323
-4.38318
-4.38316
-4.47911
-4.47545
-4.47275
-4.47077
-4.46933
-4.46829
-4.46755
-4.46702
-4.46664
-4.46639
-4.46622
-4.4661
-4.46604
-4.466
-4.46598
-4.55635
-4.55329
-4.55103
-4.54937
-4.54816
-4.54729
-4.54666
-4.54621
-4.5459
-4.54568
-4.54554
-4.54544
-4.54539
-4.54536
-4.54534
-4.63095
-4.62841
-4.62653
-4.62515
-4.62414
-4.6234
-4.62288
-4.62251
-4.62224
-4.62206
-4.62194
-4.62186
-4.62182
-4.62179
-4.62178
-4.7034
-4.70129
-4.69972
-4.69858
-4.69774
-4.69713
-4.6967
-4.69639
-4.69617
-4.69602
-4.69592
-4.69586
-4.69582
-4.6958
-4.69579
-4.77407
-4.77232
-4.77102
-4.77007
-4.76938
-4.76888
-4.76852
-4.76826
-4.76808
-4.76796
-4.76788
-4.76783
-4.76779
-4.76778
-4.76777
-4.84327
-4.84182
-4.84075
-4.83997
-4.8394
-4.83899
-4.83869
-4.83849
-4.83834
-4.83824
-4.83817
-4.83813
-4.8381
-4.83809
-4.83808
-4.91127
-4.91008
-4.9092
-4.90856
-4.90809
-4.90775
-4.90751
-4.90734
-4.90722
-4.90714
-4.90709
-4.90705
-4.90703
-4.90702
-4.90701
-4.97828
-4.97731
-4.97659
-4.97607
-4.97569
-4.97541
-4.97522
-4.97508
-4.97498
-4.97492
-4.97487
-4.97485
-4.97483
-4.97482
-4.97482
-5.04451
-5.04372
-5.04314
-5.04271
-5.04239
-5.04217
-5.04201
-5.04189
-5.04181
-5.04176
-5.04172
-5.0417
-5.04169
-5.04168
-5.04168
-5.11011
-5.10948
-5.109
-5.10865
-5.10839
-5.10819
-5.10806
-5.10796
-5.10789
-5.10784
-5.10781
-5.10779
-5.10778
-5.10777
-5.10777
-5.17527
-5.17476
-5.17436
-5.17406
-5.17382
-5.17364
-5.1735
-5.1734
-5.17332
-5.17327
-5.17324
-5.17322
-5.1732
-5.17319
-5.17319
-5.24012
-5.23973
-5.2394
-5.23912
-5.23887
-5.23865
-5.23847
-5.23832
-5.2382
-5.23812
-5.23806
-5.23802
-5.23799
-5.23798
-5.23797
-5.30485
-5.3046
-5.30437
-5.30412
-5.30385
-5.30354
-5.30319
-5.3028
-5.30248
-5.30223
-5.30206
-5.30194
-5.30187
-5.30183
-5.30182
-5.36958
-5.36954
-5.36952
-5.36951
-5.3695
-5.36947
-5.36938
-5.36709
-5.36561
-5.36467
-5.36408
-5.36371
-5.36348
-5.36337
-5.36332
-5.41863
-5.41859
-5.41857
-5.41856
-5.41856
-5.41853
-5.41854
-5.41854
-5.41855
-5.41855
-5.41855
-5.41828
-5.41811
-5.41802
-5.41799
-5.46768
-5.46765
-5.46762
-5.46761
-5.4676
-5.4676
-5.4676
-5.4676
-5.4676
-5.4676
-5.4676
-5.46758
-5.46759
-5.4676
-5.46759
-5.51676
-5.51673
-5.51671
-5.51669
-5.51668
-5.51667
-5.51666
-5.51665
-5.51665
-5.51665
-5.51665
-5.51664
-5.51664
-5.51664
-5.51664
-5.56585
-5.56582
-5.5658
-5.56578
-5.56576
-5.56574
-5.56573
-5.56572
-5.56571
-5.56571
-5.56571
-5.5657
-5.5657
-5.5657
-5.5657
-5.61494
-5.61491
-5.61488
-5.61486
-5.61484
-5.61483
-5.61482
-5.61481
-5.61481
-5.6148
-5.6148
-5.6148
-5.6148
-5.6148
-5.6148
-5.66403
-5.664
-5.66397
-5.66395
-5.66394
-5.66393
-5.66392
-5.66391
-5.66391
-5.6639
-5.6639
-5.6639
-5.6639
-5.6639
-5.6639
-5.7131
-5.71308
-5.71306
-5.71304
-5.71303
-5.71302
-5.71301
-5.71301
-5.71301
-5.713
-5.713
-5.713
-5.713
-5.713
-5.713
-5.76217
-5.76216
-5.76215
-5.76213
-5.76211
-5.7621
-5.7621
-5.76209
-5.76208
-5.76208
-5.76207
-5.76207
-5.76207
-5.76207
-5.76207
-5.81124
-5.81122
-5.8112
-5.8112
-5.81119
-5.81118
-5.81117
-5.81116
-5.81116
-5.81115
-5.81115
-5.81115
-5.81115
-5.81115
-5.81115
-5.86027
-5.86026
-5.86025
-5.86024
-5.86024
-5.86024
-5.86023
-5.86023
-5.86023
-5.86023
-5.86023
-5.86023
-5.86023
-5.86023
-5.86023
-5.90929
-5.90929
-5.90928
-5.90928
-5.90928
-5.90928
-5.90927
-5.90928
-5.90928
-5.90928
-5.90928
-5.90928
-5.90928
-5.90928
-5.90928
-5.95833
-5.95832
-5.95831
-5.95831
-5.95831
-5.95831
-5.95831
-5.95831
-5.95831
-5.95831
-5.95831
-5.95831
-5.95831
-5.95831
-5.95831
-6.00738
-6.00737
-6.00736
-6.00735
-6.00735
-6.00735
-6.00735
-6.00735
-6.00735
-6.00735
-6.00735
-6.00735
-6.00735
-6.00735
-6.00735
-6.05644
-6.05643
-6.05642
-6.05641
-6.0564
-6.0564
-6.05639
-6.05639
-6.05639
-6.05639
-6.05638
-6.05638
-6.05638
-6.05638
-6.05638
-6.1055
-6.10549
-6.10547
-6.10546
-6.10545
-6.10544
-6.10544
-6.10544
-6.10543
-6.10543
-6.10543
-6.10543
-6.10543
-6.10543
-6.10543
-6.15454
-6.15452
-6.1545
-6.15448
-6.15447
-6.15446
-6.15446
-6.15446
-6.15446
-6.15446
-6.15446
-6.15446
-6.15446
-6.15446
-6.15446
-6.20356
-6.20354
-6.20352
-6.2035
-6.20349
-6.20348
-6.20349
-6.20349
-6.2035
-6.20351
-6.20352
-6.20353
-6.20354
-6.20355
-6.20355
-3.69996
-3.69499
-3.69516
-3.69736
-3.70002
-3.70247
-3.7045
-3.70606
-3.70721
-3.70802
-3.70858
-3.70894
-3.70916
-3.70927
-3.70932
-3.77629
-3.77037
-3.76906
-3.76976
-3.77116
-3.77263
-3.77391
-3.77493
-3.77569
-3.77624
-3.77661
-3.77686
-3.77701
-3.77709
-3.77713
-3.8681
-3.86136
-3.85841
-3.85741
-3.85733
-3.85761
-3.85797
-3.8583
-3.85858
-3.85879
-3.85894
-3.85904
-3.8591
-3.85914
-3.85915
-3.96492
-3.95792
-3.95398
-3.9518
-3.95062
-3.94997
-3.94962
-3.94942
-3.94931
-3.94925
-3.94922
-3.9492
-3.94919
-3.94918
-3.94918
-4.06089
-4.05414
-4.04986
-4.04713
-4.04537
-4.04421
-4.04345
-4.04294
-4.0426
-4.04237
-4.04222
-4.04212
-4.04206
-4.04203
-4.04201
-4.15356
-4.14738
-4.14321
-4.14037
-4.13842
-4.13708
-4.13614
-4.1355
-4.13505
-4.13475
-4.13455
-4.13442
-4.13434
-4.13429
-4.13427
-4.24223
-4.23677
-4.23295
-4.23025
-4.22835
-4.22701
-4.22606
-4.2254
-4.22494
-4.22462
-4.22441
-4.22427
-4.22418
-4.22414
-4.22412
-4.327
-4.32228
-4.3189
-4.31648
-4.31475
-4.31351
-4.31263
-4.312
-4.31156
-4.31126
-4.31106
-4.31093
-4.31085
-4.31081
-4.31079
-4.40826
-4.40423
-4.40132
-4.39921
-4.39768
-4.39659
-4.3958
-4.39524
-4.39485
-4.39458
-4.3944
-4.39428
-4.39421
-4.39417
-4.39416
-4.48647
-4.48306
-4.48058
-4.47877
-4.47746
-4.47651
-4.47583
-4.47534
-4.475
-4.47477
-4.47461
-4.47451
-4.47445
-4.47441
-4.4744
-4.56206
-4.55919
-4.5571
-4.55556
-4.55445
-4.55364
-4.55306
-4.55265
-4.55236
-4.55216
-4.55202
-4.55194
-4.55189
-4.55186
-4.55184
-4.63544
-4.63303
-4.63127
-4.62998
-4.62904
-4.62836
-4.62787
-4.62752
-4.62728
-4.62711
-4.627
-4.62692
-4.62688
-4.62685
-4.62684
-4.70694
-4.70493
-4.70346
-4.70238
-4.70159
-4.70102
-4.70061
-4.70032
-4.70012
-4.69998
-4.69988
-4.69982
-4.69979
-4.69976
-4.69976
-4.77688
-4.7752
-4.77398
-4.77308
-4.77242
-4.77195
-4.77161
-4.77137
-4.7712
-4.77108
-4.771
-4.77095
-4.77092
-4.7709
-4.7709
-4.8455
-4.84411
-4.84309
-4.84235
-4.84181
-4.84142
-4.84113
-4.84093
-4.84079
-4.8407
-4.84063
-4.84059
-4.84057
-4.84055
-4.84055
-4.91304
-4.91189
-4.91105
-4.91044
-4.90999
-4.90967
-4.90943
-4.90927
-4.90916
-4.90908
-4.90902
-4.90899
-4.90897
-4.90896
-4.90895
-4.97968
-4.97873
-4.97804
-4.97754
-4.97717
-4.97691
-4.97672
-4.97658
-4.97649
-4.97643
-4.97638
-4.97636
-4.97634
-4.97633
-4.97633
-5.04559
-5.04482
-5.04425
-5.04384
-5.04354
-5.04332
-5.04316
-5.04305
-5.04297
-5.04292
-5.04288
-5.04286
-5.04285
-5.04284
-5.04284
-5.11093
-5.11031
-5.10984
-5.1095
-5.10924
-5.10905
-5.10892
-5.10882
-5.10875
-5.1087
-5.10867
-5.10865
-5.10864
-5.10863
-5.10863
-5.17585
-5.17535
-5.17496
-5.17466
-5.17443
-5.17425
-5.17411
-5.17401
-5.17394
-5.17388
-5.17385
-5.17383
-5.17381
-5.1738
-5.1738
-5.2405