/*--------------------------------*- C++ -*----------------------------------*\
  =========                 |
  \\      /  F ield         | OpenFOAM: The Open Source CFD Toolbox
   \\    /   O peration     | Website:  https://openfoam.org
    \\  /    A nd           | Version:  6
     \\/     M anipulation  |
\*---------------------------------------------------------------------------*/
FoamFile
{
    version     2.0;
    format      ascii;
    class       volScalarField;
    location    "924.998729937416215";
    object      p_rgh;
}
// * * * * * * * * * * * * * * * * * * * * * * * * * * * * * * * * * * * * * //

dimensions      [0 2 -2 0 0 0 0];

internalField   nonuniform List<scalar> 
120400
(
0.0245251
-1.76712
-2.4964
-2.84661
-3.03608
-3.14734
-3.21627
-3.26039
-3.28911
-3.30784
-3.31994
-3.32752
-3.33203
-3.33442
-3.33538
-2.7153
-2.88532
-3.04901
-3.1658
-3.24513
-3.29874
-3.3351
-3.35979
-3.3765
-3.3877
-3.39504
-3.3997
-3.40249
-3.40397
-3.40457
-3.33861
-3.35135
-3.38336
-3.41495
-3.44082
-3.46052
-3.47497
-3.48533
-3.49259
-3.49757
-3.50089
-3.50302
-3.5043
-3.50498
-3.50525
-3.57943
-3.57255
-3.57529
-3.58135
-3.58774
-3.5933
-3.59773
-3.60106
-3.60349
-3.60519
-3.60634
-3.60708
-3.60753
-3.60777
-3.60786
-3.71192
-3.70267
-3.69855
-3.69715
-3.69702
-3.6974
-3.6979
-3.69838
-3.69876
-3.69905
-3.69925
-3.69939
-3.69947
-3.69951
-3.69952
-3.80035
-3.79176
-3.78638
-3.78304
-3.78096
-3.77966
-3.77882
-3.77828
-3.77793
-3.7777
-3.77755
-3.77746
-3.7774
-3.77737
-3.77735
-3.86604
-3.85871
-3.85362
-3.85009
-3.84766
-3.84597
-3.8448
-3.84399
-3.84344
-3.84306
-3.84281
-3.84265
-3.84256
-3.84251
-3.84248
-3.9181
-3.91202
-3.90761
-3.90445
-3.90218
-3.90057
-3.89943
-3.89862
-3.89807
-3.89769
-3.89743
-3.89727
-3.89718
-3.89712
-3.8971
-3.96111
-3.95613
-3.95245
-3.94976
-3.94781
-3.94641
-3.94541
-3.9447
-3.94421
-3.94387
-3.94365
-3.9435
-3.94342
-3.94337
-3.94335
-3.99772
-3.99365
-3.99062
-3.98839
-3.98677
-3.98559
-3.98475
-3.98415
-3.98374
-3.98345
-3.98326
-3.98314
-3.98307
-3.98303
-3.98301
-4.02957
-4.02625
-4.02377
-4.02194
-4.0206
-4.01963
-4.01894
-4.01844
-4.0181
-4.01787
-4.01771
-4.01761
-4.01755
-4.01752
-4.0175
-4.05779
-4.05508
-4.05305
-4.05155
-4.05045
-4.04966
-4.04909
-4.04869
-4.0484
-4.04821
-4.04809
-4.048
-4.04796
-4.04793
-4.04792
-4.08316
-4.08095
-4.07929
-4.07806
-4.07717
-4.07652
-4.07605
-4.07573
-4.0755
-4.07534
-4.07524
-4.07517
-4.07513
-4.07511
-4.0751
-4.10629
-4.10447
-4.10312
-4.10212
-4.10139
-4.10086
-4.10048
-4.10021
-4.10003
-4.0999
-4.09982
-4.09976
-4.09973
-4.09971
-4.0997
-4.12761
-4.12613
-4.12502
-4.12421
-4.12361
-4.12318
-4.12287
-4.12266
-4.12251
-4.12241
-4.12234
-4.12229
-4.12227
-4.12225
-4.12225
-4.14749
-4.14628
-4.14538
-4.14472
-4.14423
-4.14389
-4.14364
-4.14346
-4.14334
-4.14326
-4.14321
-4.14317
-4.14315
-4.14314
-4.14313
-4.16621
-4.16523
-4.1645
-4.16396
-4.16357
-4.16329
-4.16309
-4.16295
-4.16285
-4.16279
-4.16274
-4.16271
-4.1627
-4.16269
-4.16268
-4.18401
-4.18322
-4.18263
-4.18219
-4.18188
-4.18165
-4.18148
-4.18137
-4.18129
-4.18124
-4.1812
-4.18118
-4.18116
-4.18116
-4.18115
-4.20109
-4.20046
-4.19998
-4.19963
-4.19936
-4.19917
-4.19903
-4.19893
-4.19887
-4.19882
-4.19879
-4.19877
-4.19876
-4.19875
-4.19875
-4.21765
-4.21715
-4.21676
-4.21646
-4.21622
-4.21604
-4.21591
-4.21581
-4.21574
-4.21569
-4.21566
-4.21563
-4.21562
-4.21561
-4.21561
-4.23387
-4.23349
-4.23317
-4.23289
-4.23266
-4.23245
-4.23227
-4.23213
-4.23202
-4.23193
-4.23187
-4.23184
-4.23181
-4.2318
-4.23179
-4.24991
-4.24968
-4.24945
-4.24922
-4.24897
-4.24869
-4.24838
-4.24802
-4.24771
-4.24746
-4.24729
-4.24717
-4.2471
-4.24706
-4.24705
-4.26593
-4.2659
-4.26589
-4.26588
-4.26587
-4.26586
-4.26582
-4.26412
-4.26248
-4.26145
-4.26079
-4.26039
-4.26015
-4.26002
-4.25997
-4.26593
-4.2659
-4.26589
-4.26588
-4.26587
-4.26586
-4.26586
-4.26585
-4.26585
-4.26584
-4.26584
-4.26586
-4.26569
-4.26559
-4.26556
-4.26591
-4.26589
-4.26587
-4.26587
-4.26587
-4.26587
-4.26587
-4.26587
-4.26587
-4.26586
-4.26586
-4.26586
-4.2658
-4.26584
-4.26584
-4.26594
-4.26592
-4.2659
-4.26589
-4.26588
-4.26587
-4.26586
-4.26585
-4.26585
-4.26584
-4.26584
-4.26584
-4.26584
-4.26584
-4.26584
-4.26598
-4.26595
-4.26594
-4.26591
-4.26589
-4.26588
-4.26587
-4.26586
-4.26585
-4.26585
-4.26585
-4.26585
-4.26585
-4.26585
-4.26584
-4.26602
-4.26599
-4.26597
-4.26595
-4.26592
-4.26591
-4.26589
-4.26589
-4.26588
-4.26587
-4.26587
-4.26587
-4.26587
-4.26587
-4.26587
-4.26607
-4.26604
-4.26602
-4.266
-4.26597
-4.26595
-4.26594
-4.26593
-4.26592
-4.26592
-4.26591
-4.26591
-4.26591
-4.26591
-4.26591
-4.26611
-4.26609
-4.26607
-4.26605
-4.26604
-4.26602
-4.26601
-4.266
-4.26599
-4.26598
-4.26598
-4.26598
-4.26598
-4.26598
-4.26598
-4.26612
-4.26611
-4.26609
-4.26608
-4.26607
-4.26606
-4.26605
-4.26604
-4.26603
-4.26603
-4.26603
-4.26603
-4.26603
-4.26603
-4.26603
-4.26611
-4.2661
-4.2661
-4.26609
-4.26608
-4.26607
-4.26607
-4.26606
-4.26606
-4.26606
-4.26606
-4.26606
-4.26605
-4.26605
-4.26606
-4.26611
-4.2661
-4.26609
-4.26609
-4.26608
-4.26608
-4.26608
-4.26608
-4.26607
-4.26607
-4.26607
-4.26607
-4.26607
-4.26607
-4.26607
-4.2661
-4.26609
-4.26609
-4.26609
-4.26608
-4.26608
-4.26608
-4.26608
-4.26608
-4.26608
-4.26608
-4.26608
-4.26608
-4.26608
-4.26608
-4.2661
-4.26609
-4.26608
-4.26608
-4.26607
-4.26607
-4.26607
-4.26607
-4.26607
-4.26607
-4.26607
-4.26607
-4.26607
-4.26607
-4.26607
-4.2661
-4.26609
-4.26608
-4.26607
-4.26606
-4.26606
-4.26606
-4.26606
-4.26606
-4.26606
-4.26606
-4.26606
-4.26606
-4.26606
-4.26606
-4.2661
-4.26609
-4.26608
-4.26607
-4.26606
-4.26606
-4.26605
-4.26605
-4.26605
-4.26605
-4.26605
-4.26605
-4.26605
-4.26605
-4.26605
-4.26611
-4.2661
-4.26608
-4.26608
-4.26607
-4.26606
-4.26605
-4.26605
-4.26605
-4.26605
-4.26605
-4.26605
-4.26605
-4.26605
-4.26605
-4.2661
-4.26608
-4.26606
-4.26604
-4.26603
-4.26603
-4.26602
-4.26602
-4.26602
-4.26602
-4.26603
-4.26603
-4.26603
-4.26603
-4.26603
-4.26607
-4.26605
-4.26602
-4.26601
-4.266
-4.26599
-4.266
-4.266
-4.26601
-4.26602
-4.26603
-4.26604
-4.26605
-4.26606
-4.26606
-2.37478
-2.6457
-2.88758
-3.05233
-3.16038
-3.23149
-3.27877
-3.3104
-3.33157
-3.34563
-3.3548
-3.36059
-3.36403
-3.36585
-3.36658
-3.05543
-3.10796
-3.18817
-3.25769
-3.31037
-3.34842
-3.37532
-3.39409
-3.407
-3.41573
-3.42149
-3.42516
-3.42735
-3.42851
-3.42897
-3.40899
-3.41169
-3.43081
-3.45248
-3.47146
-3.48649
-3.49779
-3.50599
-3.5118
-3.5158
-3.51847
-3.52018
-3.52121
-3.52175
-3.52196
-3.60148
-3.59375
-3.59438
-3.59834
-3.60301
-3.60725
-3.61071
-3.61335
-3.61527
-3.61663
-3.61754
-3.61812
-3.61848
-3.61866
-3.61873
-3.72161
-3.71238
-3.70788
-3.70601
-3.70543
-3.70543
-3.70564
-3.70589
-3.70611
-3.70628
-3.70639
-3.70647
-3.70652
-3.70654
-3.70654
-3.80565
-3.79712
-3.79168
-3.78822
-3.78602
-3.78461
-3.78368
-3.78306
-3.78265
-3.78238
-3.7822
-3.78208
-3.78201
-3.78197
-3.78195
-3.86934
-3.86204
-3.85694
-3.85339
-3.85091
-3.84919
-3.84799
-3.84715
-3.84657
-3.84618
-3.84592
-3.84575
-3.84564
-3.84559
-3.84556
-3.92031
-3.91424
-3.90983
-3.90666
-3.90438
-3.90275
-3.90159
-3.90078
-3.90021
-3.89982
-3.89957
-3.8994
-3.8993
-3.89924
-3.89922
-3.96268
-3.95769
-3.95401
-3.95131
-3.94935
-3.94794
-3.94693
-3.94622
-3.94572
-3.94537
-3.94515
-3.945
-3.94491
-3.94486
-3.94484
-3.99886
-3.99478
-3.99175
-3.98951
-3.98788
-3.98669
-3.98585
-3.98524
-3.98483
-3.98454
-3.98435
-3.98422
-3.98415
-3.98411
-3.98409
-4.03043
-4.0271
-4.02461
-4.02277
-4.02142
-4.02044
-4.01974
-4.01925
-4.0189
-4.01866
-4.01851
-4.0184
-4.01834
-4.01831
-4.01829
-4.05845
-4.05572
-4.05368
-4.05217
-4.05107
-4.05027
-4.0497
-4.04929
-4.04901
-4.04881
-4.04868
-4.0486
-4.04855
-4.04852
-4.04851
-4.08368
-4.08144
-4.07977
-4.07854
-4.07764
-4.07699
-4.07652
-4.07619
-4.07596
-4.0758
-4.07569
-4.07563
-4.07558
-4.07556
-4.07555
-4.10669
-4.10486
-4.1035
-4.10249
-4.10175
-4.10122
-4.10084
-4.10057
-4.10038
-4.10026
-4.10017
-4.10012
-4.10008
-4.10007
-4.10006
-4.12793
-4.12643
-4.12532
-4.1245
-4.1239
-4.12347
-4.12316
-4.12294
-4.12279
-4.12268
-4.12262
-4.12257
-4.12254
-4.12253
-4.12252
-4.14774
-4.14652
-4.14561
-4.14495
-4.14446
-4.14411
-4.14386
-4.14369
-4.14356
-4.14348
-4.14343
-4.14339
-4.14337
-4.14336
-4.14335
-4.16641
-4.16542
-4.16468
-4.16414
-4.16375
-4.16347
-4.16326
-4.16312
-4.16302
-4.16296
-4.16291
-4.16289
-4.16287
-4.16286
-4.16286
-4.18416
-4.18336
-4.18277
-4.18233
-4.18201
-4.18178
-4.18162
-4.1815
-4.18142
-4.18137
-4.18134
-4.18131
-4.1813
-4.18129
-4.18129
-4.20121
-4.20057
-4.20009
-4.19973
-4.19946
-4.19927
-4.19913
-4.19903
-4.19896
-4.19892
-4.19889
-4.19887
-4.19885
-4.19885
-4.19884
-4.21773
-4.21723
-4.21683
-4.21653
-4.21629
-4.21611
-4.21597
-4.21587
-4.2158
-4.21575
-4.21572
-4.2157
-4.21569
-4.21568
-4.21567
-4.23392
-4.23353
-4.23321
-4.23293
-4.23269
-4.23248
-4.2323
-4.23215
-4.23204
-4.23195
-4.2319
-4.23186
-4.23183
-4.23182
-4.23181
-4.24994
-4.2497
-4.24947
-4.24923
-4.24897
-4.24868
-4.24836
-4.24799
-4.24767
-4.24743
-4.24725
-4.24714
-4.24707
-4.24703
-4.24701
-4.26593
-4.2659
-4.26588
-4.26587
-4.26587
-4.26586
-4.26581
-4.26385
-4.26228
-4.26128
-4.26065
-4.26026
-4.26003
-4.25991
-4.25986
-4.26593
-4.2659
-4.26588
-4.26587
-4.26587
-4.26586
-4.26586
-4.26585
-4.26585
-4.26584
-4.26584
-4.26586
-4.26568
-4.26559
-4.26555
-4.26591
-4.26589
-4.26587
-4.26586
-4.26587
-4.26587
-4.26587
-4.26587
-4.26587
-4.26587
-4.26587
-4.26587
-4.26581
-4.26584
-4.26584
-4.26595
-4.26592
-4.2659
-4.26589
-4.26588
-4.26587
-4.26586
-4.26585
-4.26585
-4.26584
-4.26584
-4.26584
-4.26584
-4.26584
-4.26584
-4.26599
-4.26596
-4.26594
-4.26592
-4.2659
-4.26588
-4.26587
-4.26586
-4.26586
-4.26586
-4.26586
-4.26585
-4.26585
-4.26585
-4.26585
-4.26604
-4.266
-4.26597
-4.26595
-4.26593
-4.26592
-4.2659
-4.2659
-4.26589
-4.26589
-4.26588
-4.26588
-4.26588
-4.26588
-4.26588
-4.26608
-4.26606
-4.26603
-4.26601
-4.26598
-4.26596
-4.26595
-4.26594
-4.26594
-4.26593
-4.26593
-4.26593
-4.26593
-4.26592
-4.26592
-4.26611
-4.2661
-4.26608
-4.26607
-4.26605
-4.26603
-4.26602
-4.26601
-4.266
-4.266
-4.26599
-4.26599
-4.26599
-4.26599
-4.26599
-4.26613
-4.26611
-4.2661
-4.26609
-4.26607
-4.26607
-4.26606
-4.26605
-4.26604
-4.26604
-4.26604
-4.26603
-4.26603
-4.26603
-4.26603
-4.26612
-4.26611
-4.2661
-4.26609
-4.26608
-4.26608
-4.26607
-4.26606
-4.26606
-4.26606
-4.26606
-4.26606
-4.26606
-4.26606
-4.26606
-4.26611
-4.2661
-4.2661
-4.26609
-4.26609
-4.26608
-4.26608
-4.26608
-4.26608
-4.26608
-4.26608
-4.26608
-4.26608
-4.26608
-4.26608
-4.2661
-4.26609
-4.26609
-4.26608
-4.26608
-4.26608
-4.26608
-4.26608
-4.26608
-4.26608
-4.26608
-4.26608
-4.26608
-4.26609
-4.26609
-4.2661
-4.26609
-4.26608
-4.26608
-4.26607
-4.26607
-4.26607
-4.26607
-4.26607
-4.26607
-4.26607
-4.26607
-4.26607
-4.26607
-4.26607
-4.2661
-4.26609
-4.26608
-4.26607
-4.26606
-4.26606
-4.26606
-4.26606
-4.26606
-4.26606
-4.26606
-4.26606
-4.26606
-4.26606
-4.26606
-4.2661
-4.26609
-4.26608
-4.26607
-4.26606
-4.26606
-4.26605
-4.26605
-4.26605
-4.26605
-4.26605
-4.26605
-4.26605
-4.26605
-4.26605
-4.26611
-4.2661
-4.26608
-4.26608
-4.26607
-4.26606
-4.26605
-4.26605
-4.26605
-4.26605
-4.26605
-4.26605
-4.26605
-4.26605
-4.26605
-4.2661
-4.26608
-4.26606
-4.26604
-4.26603
-4.26603
-4.26603
-4.26602
-4.26602
-4.26602
-4.26603
-4.26603
-4.26603
-4.26603
-4.26603
-4.26607
-4.26605
-4.26602
-4.26601
-4.266
-4.26599
-4.266
-4.266
-4.26601
-4.26602
-4.26603
-4.26604
-4.26605
-4.26606
-4.26606
-3.08294
-3.13543
-3.21185
-3.27755
-3.32725
-3.36313
-3.38851
-3.40622
-3.41841
-3.42665
-3.4321
-3.43557
-3.43763
-3.43873
-3.43916
-3.3126
-3.32566
-3.3582
-3.39129
-3.41886
-3.44005
-3.45567
-3.46688
-3.47474
-3.48013
-3.48371
-3.486
-3.48737
-3.4881
-3.48838
-3.50666
-3.50341
-3.51153
-3.52284
-3.53363
-3.5426
-3.54956
-3.55472
-3.55843
-3.561
-3.56273
-3.56384
-3.5645
-3.56485
-3.56499
-3.64481
-3.63664
-3.635
-3.63639
-3.63873
-3.64111
-3.64315
-3.64476
-3.64595
-3.6468
-3.64737
-3.64774
-3.64796
-3.64808
-3.64812
-3.74413
-3.73525
-3.73047
-3.72807
-3.72695
-3.72646
-3.72628
-3.72624
-3.72624
-3.72626
-3.72628
-3.72629
-3.7263
-3.7263
-3.72629
-3.81892
-3.81076
-3.80543
-3.80197
-3.79971
-3.79821
-3.79721
-3.79654
-3.79609
-3.79578
-3.79558
-3.79544
-3.79536
-3.79532
-3.7953
-3.87789
-3.87085
-3.86591
-3.86246
-3.86004
-3.85834
-3.85715
-3.85632
-3.85575
-3.85536
-3.8551
-3.85493
-3.85483
-3.85477
-3.85474
-3.92617
-3.92028
-3.916
-3.91292
-3.9107
-3.90911
-3.90799
-3.90719
-3.90664
-3.90626
-3.906
-3.90584
-3.90574
-3.90568
-3.90566
-3.96687
-3.962
-3.9584
-3.95578
-3.95387
-3.95249
-3.95151
-3.95081
-3.95032
-3.94999
-3.94977
-3.94962
-3.94953
-3.94949
-3.94946
-4.00196
-3.99795
-3.99497
-3.99278
-3.99118
-3.99002
-3.98919
-3.98861
-3.98819
-3.98791
-3.98772
-3.9876
-3.98753
-3.98748
-3.98747
-4.03278
-4.02948
-4.02703
-4.02522
-4.02389
-4.02293
-4.02225
-4.02176
-4.02142
-4.02118
-4.02103
-4.02093
-4.02087
-4.02083
-4.02082
-4.06025
-4.05754
-4.05553
-4.05404
-4.05295
-4.05216
-4.05159
-4.05119
-4.05091
-4.05072
-4.05059
-4.05051
-4.05046
-4.05043
-4.05042
-4.08508
-4.08286
-4.0812
-4.07998
-4.07909
-4.07844
-4.07798
-4.07765
-4.07742
-4.07726
-4.07716
-4.07709
-4.07705
-4.07703
-4.07702
-4.1078
-4.10597
-4.10461
-4.10361
-4.10288
-4.10235
-4.10197
-4.1017
-4.10152
-4.10139
-4.1013
-4.10125
-4.10122
-4.1012
-4.10119
-4.1288
-4.12731
-4.12619
-4.12538
-4.12478
-4.12435
-4.12404
-4.12383
-4.12368
-4.12357
-4.1235
-4.12346
-4.12343
-4.12342
-4.12341
-4.14843
-4.14721
-4.1463
-4.14563
-4.14515
-4.1448
-4.14455
-4.14438
-4.14426
-4.14417
-4.14412
-4.14408
-4.14406
-4.14405
-4.14404
-4.16695
-4.16595
-4.16522
-4.16468
-4.16429
-4.164
-4.1638
-4.16366
-4.16357
-4.1635
-4.16346
-4.16343
-4.16341
-4.1634
-4.1634
-4.18458
-4.18378
-4.18318
-4.18274
-4.18242
-4.18219
-4.18203
-4.18192
-4.18184
-4.18178
-4.18175
-4.18172
-4.18171
-4.1817
-4.1817
-4.20152
-4.20088
-4.2004
-4.20004
-4.19977
-4.19958
-4.19944
-4.19934
-4.19927
-4.19923
-4.19919
-4.19918
-4.19916
-4.19916
-4.19915
-4.21796
-4.21745
-4.21705
-4.21674
-4.2165
-4.21632
-4.21618
-4.21608
-4.21601
-4.21596
-4.21593
-4.2159
-4.21589
-4.21588
-4.21588
-4.23406
-4.23367
-4.23334
-4.23306
-4.23282
-4.2326
-4.23242
-4.23228
-4.23216
-4.23208
-4.23202
-4.23198
-4.23196
-4.23194
-4.23194
-4.25001
-4.24976
-4.24953
-4.24929
-4.24903
-4.24873
-4.24839
-4.24802
-4.24769
-4.24745
-4.24727
-4.24716
-4.24708
-4.24705
-4.24703
-4.26593
-4.26591
-4.26588
-4.26587
-4.26587
-4.26587
-4.26581
-4.2637
-4.26215
-4.26118
-4.26056
-4.26018
-4.25995
-4.25983
-4.25978
-4.26593
-4.26591
-4.26588
-4.26588
-4.26588
-4.26587
-4.26586
-4.26585
-4.26584
-4.26584
-4.26584
-4.26583
-4.26565
-4.26555
-4.26551
-4.26592
-4.26589
-4.26588
-4.26586
-4.26586
-4.26586
-4.26586
-4.26586
-4.26586
-4.26586
-4.26586
-4.26586
-4.26583
-4.26585
-4.26584
-4.26596
-4.26593
-4.2659
-4.26589
-4.26588
-4.26587
-4.26586
-4.26585
-4.26584
-4.26584
-4.26584
-4.26584
-4.26584
-4.26583
-4.26583
-4.266
-4.26597
-4.26595
-4.26593
-4.26591
-4.26589
-4.26588
-4.26587
-4.26587
-4.26586
-4.26586
-4.26586
-4.26586
-4.26586
-4.26586
-4.26605
-4.26601
-4.26598
-4.26596
-4.26594
-4.26593
-4.26592
-4.26591
-4.26591
-4.2659
-4.2659
-4.2659
-4.2659
-4.2659
-4.2659
-4.26609
-4.26607
-4.26604
-4.26602
-4.266
-4.26598
-4.26597
-4.26597
-4.26596
-4.26596
-4.26595
-4.26595
-4.26595
-4.26595
-4.26595
-4.26611
-4.2661
-4.26608
-4.26607
-4.26605
-4.26604
-4.26603
-4.26602
-4.26602
-4.26601
-4.26601
-4.26601
-4.26601
-4.26601
-4.26601
-4.26613
-4.26611
-4.2661
-4.26609
-4.26608
-4.26607
-4.26606
-4.26605
-4.26605
-4.26605
-4.26605
-4.26604
-4.26604
-4.26604
-4.26604
-4.26613
-4.26612
-4.26611
-4.2661
-4.26609
-4.26608
-4.26607
-4.26607
-4.26607
-4.26606
-4.26606
-4.26606
-4.26606
-4.26606
-4.26606
-4.26612
-4.26611
-4.2661
-4.2661
-4.26609
-4.26609
-4.26609
-4.26609
-4.26608
-4.26608
-4.26608
-4.26608
-4.26608
-4.26608
-4.26608
-4.26611
-4.2661
-4.26609
-4.26609
-4.26609
-4.26609
-4.26609
-4.26609
-4.26609
-4.26609
-4.26609
-4.26609
-4.26609
-4.26609
-4.26609
-4.2661
-4.26608
-4.26608
-4.26608
-4.26608
-4.26607
-4.26607
-4.26608
-4.26608
-4.26608
-4.26608
-4.26608
-4.26608
-4.26608
-4.26608
-4.26609
-4.26609
-4.26608
-4.26607
-4.26606
-4.26606
-4.26606
-4.26606
-4.26606
-4.26606
-4.26606
-4.26606
-4.26606
-4.26606
-4.26606
-4.2661
-4.26609
-4.26608
-4.26607
-4.26607
-4.26606
-4.26606
-4.26605
-4.26605
-4.26605
-4.26605
-4.26605
-4.26605
-4.26605
-4.26605
-4.26611
-4.2661
-4.26609
-4.26608
-4.26607
-4.26606
-4.26605
-4.26605
-4.26605
-4.26605
-4.26605
-4.26605
-4.26605
-4.26605
-4.26605
-4.2661
-4.26609
-4.26607
-4.26605
-4.26603
-4.26603
-4.26603
-4.26602
-4.26603
-4.26603
-4.26603
-4.26603
-4.26603
-4.26603
-4.26603
-4.26608
-4.26605
-4.26603
-4.26601
-4.266
-4.266
-4.266
-4.26601
-4.26601
-4.26603
-4.26604
-4.26604
-4.26605
-4.26606
-4.26607
-3.3933
-3.40262
-3.42666
-3.45144
-3.47232
-3.48851
-3.50053
-3.5092
-3.51531
-3.51951
-3.52231
-3.52411
-3.52518
-3.52575
-3.52597
-3.48952
-3.48958
-3.50076
-3.5145
-3.52705
-3.53726
-3.54508
-3.55084
-3.55495
-3.5578
-3.55972
-3.56095
-3.56168
-3.56207
-3.56223
-3.59998
-3.59407
-3.59569
-3.60015
-3.60508
-3.60949
-3.61304
-3.61575
-3.61772
-3.61911
-3.62005
-3.62065
-3.62101
-3.62121
-3.62128
-3.69599
-3.68788
-3.68473
-3.68411
-3.68462
-3.68546
-3.68629
-3.687
-3.68755
-3.68796
-3.68824
-3.68842
-3.68853
-3.68859
-3.68861
-3.77428
-3.76598
-3.76114
-3.75839
-3.75683
-3.75595
-3.75544
-3.75514
-3.75496
-3.75485
-3.75478
-3.75473
-3.7547
-3.75468
-3.75467
-3.83798
-3.83039
-3.82533
-3.82197
-3.81972
-3.81821
-3.81718
-3.81648
-3.816
-3.81568
-3.81546
-3.81532
-3.81524
-3.81519
-3.81517
-3.89067
-3.88408
-3.87943
-3.87615
-3.87385
-3.87223
-3.87109
-3.8703
-3.86974
-3.86936
-3.86911
-3.86895
-3.86885
-3.86879
-3.86877
-3.93515
-3.92957
-3.92552
-3.9226
-3.9205
-3.919
-3.91793
-3.91718
-3.91665
-3.91629
-3.91605
-3.91589
-3.91579
-3.91574
-3.91572
-3.9734
-3.96873
-3.96531
-3.9628
-3.96099
-3.95968
-3.95874
-3.95807
-3.95761
-3.95729
-3.95708
-3.95694
-3.95685
-3.95681
-3.95678
-4.00683
-4.00296
-4.0001
-3.998
-3.99646
-3.99535
-3.99456
-3.99399
-3.9936
-3.99333
-3.99315
-3.99303
-3.99296
-3.99292
-3.9929
-4.03648
-4.03328
-4.0309
-4.02915
-4.02788
-4.02695
-4.02628
-4.02581
-4.02548
-4.02525
-4.0251
-4.025
-4.02494
-4.02491
-4.0249
-4.06311
-4.06047
-4.0585
-4.05706
-4.056
-4.05523
-4.05468
-4.05429
-4.05402
-4.05383
-4.05371
-4.05363
-4.05358
-4.05355
-4.05354
-4.08732
-4.08513
-4.08351
-4.08232
-4.08145
-4.08081
-4.08036
-4.08004
-4.07981
-4.07966
-4.07956
-4.07949
-4.07945
-4.07943
-4.07942
-4.10955
-4.10775
-4.10642
-4.10544
-4.10472
-4.1042
-4.10383
-4.10357
-4.10339
-4.10326
-4.10318
-4.10312
-4.10309
-4.10307
-4.10306
-4.13019
-4.12871
-4.12762
-4.12681
-4.12622
-4.1258
-4.1255
-4.12528
-4.12513
-4.12503
-4.12496
-4.12492
-4.12489
-4.12487
-4.12487
-4.14953
-4.14831
-4.14742
-4.14676
-4.14628
-4.14594
-4.14569
-4.14552
-4.1454
-4.14532
-4.14526
-4.14523
-4.14521
-4.14519
-4.14519
-4.16781
-4.16682
-4.16609
-4.16556
-4.16517
-4.16489
-4.16469
-4.16455
-4.16445
-4.16438
-4.16434
-4.16431
-4.16429
-4.16428
-4.16428
-4.18525
-4.18445
-4.18385
-4.18342
-4.1831
-4.18287
-4.18271
-4.1826
-4.18252
-4.18246
-4.18243
-4.18241
-4.18239
-4.18238
-4.18238
-4.20202
-4.20138
-4.2009
-4.20054
-4.20027
-4.20008
-4.19994
-4.19984
-4.19977
-4.19972
-4.19969
-4.19967
-4.19966
-4.19965
-4.19965
-4.21831
-4.2178
-4.21741
-4.2171
-4.21686
-4.21668
-4.21654
-4.21644
-4.21637
-4.21632
-4.21628
-4.21626
-4.21625
-4.21624
-4.21624
-4.23429
-4.2339
-4.23357
-4.23329
-4.23304
-4.23282
-4.23264
-4.23249
-4.23237
-4.23228
-4.23222
-4.23218
-4.23216
-4.23215
-4.23214
-4.25013
-4.24988
-4.24964
-4.24939
-4.24913
-4.24882
-4.24848
-4.2481
-4.24777
-4.24752
-4.24735
-4.24723
-4.24716
-4.24712
-4.24711
-4.26595
-4.26592
-4.26589
-4.26587
-4.26587
-4.26587
-4.26578
-4.26352
-4.26202
-4.26107
-4.26047
-4.26009
-4.25986
-4.25975
-4.2597
-4.26595
-4.26592
-4.26589
-4.26587
-4.26587
-4.26587
-4.26586
-4.26585
-4.26585
-4.26586
-4.26586
-4.2656
-4.26544
-4.26536
-4.26532
-4.26594
-4.26591
-4.26589
-4.26587
-4.26586
-4.26586
-4.26587
-4.26587
-4.26587
-4.26587
-4.26587
-4.26585
-4.26585
-4.26586
-4.26585
-4.26597
-4.26594
-4.26592
-4.2659
-4.26589
-4.26589
-4.26587
-4.26586
-4.26586
-4.26585
-4.26585
-4.26585
-4.26585
-4.26585
-4.26585
-4.26602
-4.26599
-4.26596
-4.26594
-4.26592
-4.26591
-4.26589
-4.26589
-4.26588
-4.26587
-4.26587
-4.26587
-4.26587
-4.26587
-4.26587
-4.26605
-4.26602
-4.266
-4.26598
-4.26596
-4.26595
-4.26593
-4.26592
-4.26592
-4.26591
-4.26591
-4.26591
-4.26591
-4.26591
-4.26591
-4.26609
-4.26607
-4.26605
-4.26602
-4.26601
-4.26599
-4.26598
-4.26598
-4.26597
-4.26597
-4.26597
-4.26597
-4.26596
-4.26596
-4.26596
-4.26612
-4.2661
-4.26608
-4.26607
-4.26605
-4.26604
-4.26604
-4.26603
-4.26603
-4.26602
-4.26602
-4.26602
-4.26602
-4.26602
-4.26602
-4.26614
-4.26612
-4.2661
-4.26609
-4.26608
-4.26607
-4.26606
-4.26606
-4.26605
-4.26605
-4.26604
-4.26604
-4.26604
-4.26604
-4.26604
-4.26614
-4.26613
-4.26612
-4.26611
-4.2661
-4.26609
-4.26608
-4.26607
-4.26607
-4.26607
-4.26607
-4.26606
-4.26606
-4.26606
-4.26606
-4.26613
-4.26612
-4.26611
-4.26611
-4.2661
-4.2661
-4.2661
-4.26609
-4.26609
-4.26609
-4.26609
-4.26609
-4.26609
-4.26609
-4.26609
-4.26611
-4.2661
-4.2661
-4.26609
-4.26609
-4.26609
-4.26609
-4.26609
-4.26609
-4.26609
-4.26609
-4.26609
-4.26609
-4.26609
-4.26609
-4.2661
-4.26609
-4.26608
-4.26608
-4.26608
-4.26608
-4.26608
-4.26608
-4.26608
-4.26608
-4.26608
-4.26608
-4.26608
-4.26608
-4.26608
-4.2661
-4.26609
-4.26608
-4.26607
-4.26607
-4.26607
-4.26607
-4.26607
-4.26607
-4.26607
-4.26607
-4.26607
-4.26607
-4.26607
-4.26607
-4.26611
-4.26609
-4.26608
-4.26608
-4.26607
-4.26606
-4.26606
-4.26606
-4.26605
-4.26605
-4.26605
-4.26605
-4.26605
-4.26605
-4.26605
-4.26612
-4.26611
-4.26609
-4.26608
-4.26607
-4.26606
-4.26606
-4.26605
-4.26605
-4.26605
-4.26605
-4.26605
-4.26605
-4.26605
-4.26605
-4.26611
-4.26609
-4.26607
-4.26605
-4.26604
-4.26604
-4.26603
-4.26603
-4.26603
-4.26603
-4.26603
-4.26603
-4.26603
-4.26603
-4.26603
-4.26608
-4.26606
-4.26604
-4.26602
-4.266
-4.266
-4.266
-4.26601
-4.26602
-4.26603
-4.26604
-4.26605
-4.26606
-4.26606
-4.26607
-3.56538
-3.56364
-3.56997
-3.57852
-3.58659
-3.59329
-3.59849
-3.60235
-3.60512
-3.60705
-3.60835
-3.60919
-3.60969
-3.60996
-3.61007
-3.61329
-3.60869
-3.6109
-3.61554
-3.62045
-3.62476
-3.6282
-3.63081
-3.63272
-3.63405
-3.63495
-3.63553
-3.63588
-3.63607
-3.63615
-3.67983
-3.67301
-3.67134
-3.67208
-3.67363
-3.67529
-3.67675
-3.67791
-3.67878
-3.6794
-3.67983
-3.6801
-3.68027
-3.68036
-3.6804
-3.74679
-3.7391
-3.73523
-3.73348
-3.73281
-3.73265
-3.7327
-3.73283
-3.73295
-3.73305
-3.73313
-3.73318
-3.73321
-3.73323
-3.73324
-3.80738
-3.79981
-3.79513
-3.79226
-3.79049
-3.78938
-3.78867
-3.78821
-3.78792
-3.78772
-3.78759
-3.7875
-3.78745
-3.78742
-3.78741
-3.86033
-3.85341
-3.84874
-3.84558
-3.84344
-3.84197
-3.84096
-3.84026
-3.83978
-3.83946
-3.83924
-3.8391
-3.83901
-3.83896
-3.83894
-3.90632
-3.90025
-3.89597
-3.89295
-3.89083
-3.88932
-3.88826
-3.88752
-3.887
-3.88665
-3.88641
-3.88626
-3.88616
-3.88611
-3.88609
-3.94644
-3.94125
-3.9375
-3.9348
-3.93286
-3.93148
-3.93049
-3.92979
-3.9293
-3.92896
-3.92874
-3.92859
-3.9285
-3.92845
-3.92843
-3.98175
-3.97737
-3.97417
-3.97184
-3.97015
-3.96893
-3.96806
-3.96744
-3.96701
-3.96671
-3.96651
-3.96638
-3.9663
-3.96626
-3.96624
-4.01314
-4.00947
-4.00677
-4.0048
-4.00336
-4.00232
-4.00157
-4.00104
-4.00067
-4.00041
-4.00024
-4.00013
-4.00006
-4.00002
-4.00001
-4.04132
-4.03827
-4.03601
-4.03435
-4.03314
-4.03226
-4.03163
-4.03119
-4.03087
-4.03066
-4.03051
-4.03042
-4.03036
-4.03033
-4.03032
-4.06688
-4.06434
-4.06245
-4.06107
-4.06006
-4.05933
-4.0588
-4.05843
-4.05817
-4.05799
-4.05787
-4.05779
-4.05774
-4.05771
-4.0577
-4.09028
-4.08816
-4.0866
-4.08545
-4.08461
-4.08401
-4.08357
-4.08326
-4.08304
-4.0829
-4.0828
-4.08273
-4.08269
-4.08267
-4.08266
-4.11189
-4.11014
-4.10885
-4.1079
-4.1072
-4.1067
-4.10634
-4.10609
-4.10591
-4.10579
-4.1057
-4.10565
-4.10562
-4.1056
-4.10559
-4.13204
-4.1306
-4.12953
-4.12875
-4.12818
-4.12777
-4.12747
-4.12726
-4.12712
-4.12702
-4.12695
-4.1269
-4.12688
-4.12686
-4.12686
-4.15099
-4.1498
-4.14893
-4.14828
-4.14782
-4.14748
-4.14724
-4.14707
-4.14695
-4.14687
-4.14681
-4.14678
-4.14676
-4.14675
-4.14674
-4.16896
-4.16799
-4.16727
-4.16674
-4.16636
-4.16609
-4.16589
-4.16576
-4.16566
-4.16559
-4.16555
-4.16552
-4.1655
-4.16549
-4.16549
-4.18613
-4.18534
-4.18476
-4.18433
-4.18402
-4.18379
-4.18363
-4.18352
-4.18344
-4.18339
-4.18335
-4.18333
-4.18331
-4.1833
-4.1833
-4.20269
-4.20205
-4.20158
-4.20122
-4.20096
-4.20077
-4.20063
-4.20053
-4.20046
-4.20042
-4.20038
-4.20036
-4.20035
-4.20034
-4.20034
-4.21879
-4.21828
-4.21789
-4.21758
-4.21734
-4.21716
-4.21702
-4.21692
-4.21685
-4.2168
-4.21676
-4.21674
-4.21673
-4.21672
-4.21672
-4.2346
-4.23421
-4.23388
-4.2336
-4.23335
-4.23313
-4.23295
-4.23279
-4.23268
-4.23259
-4.23253
-4.23249
-4.23247
-4.23245
-4.23245
-4.25028
-4.25003
-4.24979
-4.24954
-4.24927
-4.24897
-4.24862
-4.24823
-4.2479
-4.24765
-4.24748
-4.24737
-4.24729
-4.24726
-4.24724
-4.26596
-4.26591
-4.2659
-4.26589
-4.26588
-4.26585
-4.26575
-4.26346
-4.26198
-4.26105
-4.26045
-4.26008
-4.25986
-4.25974
-4.25969
-4.26596
-4.26591
-4.2659
-4.26589
-4.26588
-4.26586
-4.26586
-4.26586
-4.26587
-4.26587
-4.26588
-4.2656
-4.26544
-4.26535
-4.26531
-4.26595
-4.26592
-4.2659
-4.26588
-4.26587
-4.26588
-4.26588
-4.26588
-4.26588
-4.26588
-4.26588
-4.26585
-4.26586
-4.26587
-4.26587
-4.26599
-4.26596
-4.26593
-4.26591
-4.2659
-4.26589
-4.26588
-4.26588
-4.26587
-4.26587
-4.26587
-4.26587
-4.26587
-4.26587
-4.26587
-4.26603
-4.266
-4.26598
-4.26596
-4.26593
-4.26592
-4.2659
-4.26589
-4.26589
-4.26588
-4.26588
-4.26588
-4.26588
-4.26588
-4.26588
-4.26607
-4.26603
-4.266
-4.26599
-4.26597
-4.26596
-4.26594
-4.26594
-4.26593
-4.26593
-4.26592
-4.26592
-4.26592
-4.26592
-4.26592
-4.2661
-4.26608
-4.26605
-4.26603
-4.26601
-4.266
-4.26599
-4.26599
-4.26598
-4.26598
-4.26597
-4.26597
-4.26597
-4.26597
-4.26597
-4.26612
-4.26611
-4.26609
-4.26607
-4.26606
-4.26605
-4.26604
-4.26603
-4.26603
-4.26603
-4.26603
-4.26603
-4.26603
-4.26603
-4.26603
-4.26615
-4.26613
-4.26612
-4.26611
-4.26609
-4.26608
-4.26607
-4.26606
-4.26606
-4.26605
-4.26605
-4.26605
-4.26604
-4.26604
-4.26604
-4.26616
-4.26615
-4.26613
-4.26613
-4.26612
-4.26611
-4.2661
-4.26609
-4.26608
-4.26608
-4.26608
-4.26608
-4.26608
-4.26607
-4.26608
-4.26614
-4.26614
-4.26612
-4.26612
-4.26611
-4.26611
-4.26611
-4.26611
-4.2661
-4.2661
-4.2661
-4.2661
-4.2661
-4.2661
-4.2661
-4.26612
-4.26611
-4.26611
-4.2661
-4.2661
-4.2661
-4.2661
-4.2661
-4.2661
-4.2661
-4.2661
-4.2661
-4.2661
-4.2661
-4.2661
-4.2661
-4.26609
-4.26609
-4.26609
-4.26609
-4.26609
-4.26609
-4.26609
-4.26609
-4.26609
-4.26609
-4.26609
-4.26609
-4.26609
-4.26609
-4.2661
-4.26609
-4.26609
-4.26608
-4.26608
-4.26608
-4.26607
-4.26607
-4.26607
-4.26607
-4.26607
-4.26607
-4.26607
-4.26607
-4.26607
-4.26612
-4.2661
-4.26609
-4.26608
-4.26608
-4.26607
-4.26607
-4.26606
-4.26606
-4.26606
-4.26606
-4.26606
-4.26606
-4.26606
-4.26606
-4.26612
-4.26611
-4.2661
-4.26609
-4.26608
-4.26607
-4.26606
-4.26606
-4.26606
-4.26606
-4.26606
-4.26606
-4.26606
-4.26606
-4.26606
-4.26611
-4.26609
-4.26608
-4.26606
-4.26605
-4.26604
-4.26604
-4.26604
-4.26604
-4.26604
-4.26604
-4.26604
-4.26604
-4.26604
-4.26604
-4.26609
-4.26606
-4.26604
-4.26602
-4.26601
-4.26601
-4.26601
-4.26602
-4.26603
-4.26604
-4.26605
-4.26606
-4.26606
-4.26607
-4.26608
-3.67544
-3.67046
-3.67064
-3.67283
-3.67549
-3.67795
-3.67997
-3.68153
-3.68268
-3.6835
-3.68405
-3.68441
-3.68463
-3.68475
-3.6848
-3.70271
-3.6968
-3.69549
-3.69618
-3.69758
-3.69905
-3.70033
-3.70135
-3.70212
-3.70266
-3.70304
-3.70328
-3.70343
-3.70352
-3.70355
-3.74547
-3.73873
-3.73579
-3.73478
-3.73471
-3.73498
-3.73534
-3.73568
-3.73596
-3.73617
-3.73632
-3.73642
-3.73648
-3.73651
-3.73653
-3.79324
-3.78624
-3.7823
-3.78013
-3.77894
-3.77829
-3.77794
-3.77775
-3.77764
-3.77758
-3.77754
-3.77752
-3.77751
-3.77751
-3.77751
-3.84017
-3.83342
-3.82914
-3.82641
-3.82464
-3.82349
-3.82273
-3.82222
-3.82187
-3.82165
-3.82149
-3.8214
-3.82133
-3.8213
-3.82129
-3.88378
-3.87761
-3.87344
-3.87059
-3.86865
-3.8673
-3.86637
-3.86572
-3.86528
-3.86498
-3.86477
-3.86464
-3.86456
-3.86452
-3.8645
-3.9234
-3.91794
-3.91412
-3.91143
-3.90953
-3.90819
-3.90724
-3.90657
-3.90611
-3.90579
-3.90558
-3.90544
-3.90536
-3.90531
-3.90529
-3.95912
-3.9544
-3.95103
-3.94861
-3.94687
-3.94563
-3.94475
-3.94413
-3.94369
-3.94339
-3.94319
-3.94306
-3.94298
-3.94293
-3.94291
-3.99134
-3.98731
-3.98439
-3.98228
-3.98076
-3.97966
-3.97887
-3.97832
-3.97793
-3.97766
-3.97748
-3.97736
-3.97729
-3.97725
-3.97723
-4.02049
-4.01709
-4.0146
-4.01279
-4.01148
-4.01053
-4.00985
-4.00937
-4.00903
-4.0088
-4.00864
-4.00854
-4.00847
-4.00844
-4.00843
-4.04703
-4.04417
-4.04207
-4.04054
-4.03942
-4.03862
-4.03804
-4.03762
-4.03733
-4.03713
-4.037
-4.03691
-4.03686
-4.03683
-4.03682
-4.07136
-4.06896
-4.06719
-4.0659
-4.06497
-4.06428
-4.0638
-4.06345
-4.0632
-4.06303
-4.06292
-4.06285
-4.0628
-4.06278
-4.06277
-4.09382
-4.09181
-4.09033
-4.08925
-4.08847
-4.0879
-4.08749
-4.0872
-4.08699
-4.08685
-4.08676
-4.0867
-4.08666
-4.08664
-4.08663
-4.1147
-4.11303
-4.1118
-4.1109
-4.11025
-4.10977
-4.10943
-4.10919
-4.10902
-4.1089
-4.10883
-4.10878
-4.10874
-4.10873
-4.10872
-4.13428
-4.13289
-4.13187
-4.13112
-4.13058
-4.13019
-4.12991
-4.12971
-4.12957
-4.12947
-4.12941
-4.12937
-4.12934
-4.12933
-4.12932
-4.15276
-4.15162
-4.15077
-4.15016
-4.14971
-4.14939
-4.14916
-4.149
-4.14888
-4.1488
-4.14875
-4.14872
-4.1487
-4.14868
-4.14868
-4.17035
-4.16941
-4.16872
-4.16821
-4.16785
-4.16758
-4.16739
-4.16726
-4.16717
-4.1671
-4.16706
-4.16703
-4.16702
-4.16701
-4.167
-4.18721
-4.18644
-4.18588
-4.18547
-4.18516
-4.18494
-4.18479
-4.18468
-4.1846
-4.18454
-4.18451
-4.18449
-4.18447
-4.18446
-4.18446
-4.2035
-4.20288
-4.20242
-4.20207
-4.20182
-4.20163
-4.20149
-4.20139
-4.20133
-4.20128
-4.20125
-4.20123
-4.20122
-4.20121
-4.20121
-4.21937
-4.21887
-4.21849
-4.21819
-4.21795
-4.21777
-4.21763
-4.21753
-4.21746