/*--------------------------------*- C++ -*----------------------------------*\
  =========                 |
  \\      /  F ield         | OpenFOAM: The Open Source CFD Toolbox
   \\    /   O peration     | Website:  https://openfoam.org
    \\  /    A nd           | Version:  6
     \\/     M anipulation  |
\*---------------------------------------------------------------------------*/
FoamFile
{
    version     2.0;
    format      ascii;
    class       volScalarField;
    location    "924.998729937416215";
    object      T;
}
// * * * * * * * * * * * * * * * * * * * * * * * * * * * * * * * * * * * * * //

dimensions      [0 0 0 1 0 0 0];

internalField   nonuniform List<scalar> 
120400
(
835.802
835.92
835.964
835.983
835.992
835.997
835.999
836
836
836
836
836
836
836
836
835.995
835.998
836.003
836.005
836.006
836.006
836.005
836.005
836.004
836.003
836.002
836.002
836.001
836.001
836
836.041
836.032
836.027
836.022
836.019
836.016
836.013
836.01
836.008
836.006
836.005
836.004
836.002
836.001
836
836.061
836.05
836.041
836.034
836.028
836.023
836.019
836.015
836.012
836.01
836.007
836.005
836.003
836.002
836.001
836.076
836.063
836.053
836.044
836.036
836.03
836.024
836.02
836.016
836.012
836.009
836.007
836.004
836.002
836.001
836.09
836.076
836.063
836.053
836.044
836.036
836.03
836.024
836.019
836.015
836.011
836.008
836.005
836.003
836.001
836.105
836.089
836.074
836.062
836.052
836.043
836.035
836.028
836.023
836.018
836.013
836.01
836.006
836.004
836.001
836.123
836.104
836.087
836.073
836.061
836.05
836.041
836.033
836.027
836.021
836.016
836.011
836.007
836.004
836.001
836.144
836.122
836.103
836.086
836.072
836.059
836.049
836.039
836.031
836.024
836.018
836.013
836.009
836.005
836.002
836.169
836.144
836.121
836.102
836.085
836.07
836.057
836.047
836.037
836.029
836.022
836.016
836.01
836.006
836.002
836.201
836.171
836.144
836.121
836.101
836.084
836.069
836.056
836.044
836.034
836.026
836.019
836.012
836.007
836.002
836.241
836.205
836.174
836.146
836.122
836.101
836.083
836.067
836.053
836.042
836.031
836.023
836.015
836.008
836.003
836.292
836.249
836.211
836.177
836.148
836.122
836.1
836.081
836.065
836.051
836.038
836.027
836.018
836.01
836.003
836.357
836.304
836.258
836.217
836.182
836.15
836.123
836.1
836.08
836.062
836.047
836.034
836.022
836.013
836.004
836.44
836.377
836.32
836.27
836.226
836.187
836.154
836.125
836.099
836.077
836.059
836.042
836.028
836.016
836.005
836.549
836.471
836.402
836.339
836.284
836.236
836.194
836.157
836.126
836.098
836.074
836.053
836.035
836.02
836.006
836.693
836.598
836.512
836.434
836.364
836.303
836.25
836.203
836.162
836.126
836.095
836.069
836.045
836.025
836.008
836.888
836.772
836.664
836.565
836.476
836.397
836.328
836.266
836.213
836.166
836.126
836.091
836.06
836.034
836.011
837.155
837.013
836.879
836.753
836.639
836.535
836.442
836.361
836.289
836.226
836.171
836.123
836.082
836.046
836.014
837.525
837.356
837.191
837.031
836.882
836.744
836.619
836.506
836.406
836.318
836.241
836.174
836.115
836.065
836.02
838.04
837.85
837.653
837.456
837.263
837.079
836.906
836.747
836.603
836.474
836.36
836.26
836.173
836.097
836.031
838.748
838.558
838.349
838.124
837.89
837.65
837.413
837.184
836.967
836.768
836.587
836.426
836.283
836.159
836.05
839.688
839.548
839.382
839.186
838.959
838.701
838.414
838.101
837.77
837.435
837.111
836.812
836.543
836.305
836.097
840.844
840.822
840.801
840.772
840.734
840.683
840.62
840.527
840.243
839.616
838.837
838.046
837.358
836.76
836.241
859.469
859.507
859.54
859.576
860.384
860.96
859.33
856.981
854.918
852.167
847.68
840.797
839.304
837.885
836.602
858.663
859.045
859.197
859.172
859.263
859.56
859.815
859.941
860.038
860.477
861.613
860.477
854.632
846.813
839.428
857.72
858.114
858.296
858.299
858.292
858.358
858.513
858.727
858.99
859.344
860.129
859.859
855.473
847.677
839.707
855.482
855.976
856.425
856.731
856.907
857.022
857.088
857.185
857.457
857.954
858.8
858.802
855.123
847.648
839.709
853.23
853.712
854.361
854.917
855.312
855.591
855.751
855.877
856.181
856.759
857.636
857.896
854.445
847.177
839.536
852.641
852.979
853.489
853.96
854.299
854.559
854.703
854.822
855.313
856.175
857.254
857.042
852.929
846.028
839.175
852.618
852.736
853.086
853.471
853.769
854.012
854.223
854.658
855.338
856.38
857.3
856.052
851.334
844.993
838.862
852.691
852.529
852.581
852.946
853.366
853.738
854.22
854.876
855.855
857.038
857.305
854.568
849.409
843.746
838.486
852.977
852.917
852.58
852.5
852.908
853.527
854.295
855.326
856.57
857.337
856.135
851.98
846.465
841.314
837.684
853.276
853.544
853.364
852.82
852.689
853.248
854.224
855.432
856.733
857.264
855.554
851.287
846.098
841.048
837.599
853.363
853.71
853.896
853.66
853.148
853.118
853.848
855.215
856.689
857.202
855.4
851.194
845.917
840.734
837.499
853.264
853.48
853.748
853.904
853.845
853.623
853.811
854.58
855.688
856.408
855.145
851.036
845.644
840.554
837.442
853.408
853.506
853.659
853.82
853.898
853.769
853.627
854.322
856.118
857.218
854.859
849.754
844.646
840.513
837.427
853.31
853.34
853.39
853.476
853.677
853.919
854.355
855.196
855.626
853.635
849.36
845.006
841.222
838.932
836.93
852.796
852.923
853.194
853.63
854.145
854.671
855.071
855.08
853.98
851.594
848.774
845.8
842.812
839.894
837.243
856.553
856.515
856.501
856.518
856.46
856.299
855.887
855.124
853.999
852.542
850.889
848.783
846.069
842.63
838.47
835.97
835.98
835.99
835.997
836
836.001
836.002
836.002
836.002
836.002
836.001
836.001
836.001
836
836
836.019
836.013
836.012
836.011
836.01
836.009
836.007
836.006
836.005
836.004
836.003
836.002
836.001
836.001
836
836.045
836.036
836.029
836.024
836.02
836.017
836.014
836.011
836.009
836.007
836.005
836.004
836.002
836.001
836
836.062
836.051
836.042
836.035
836.029
836.024
836.019
836.016
836.012
836.01
836.007
836.005
836.003
836.002
836.001
836.076
836.064
836.053
836.044
836.036
836.03
836.024
836.02
836.016
836.012
836.009
836.007
836.004
836.002
836.001
836.09
836.075
836.063
836.053
836.044
836.036
836.029
836.024
836.019
836.015
836.011
836.008
836.005
836.003
836.001
836.105
836.088
836.074
836.062
836.052
836.043
836.035
836.028
836.022
836.017
836.013
836.009
836.006
836.003
836.001
836.123
836.104
836.087
836.073
836.061
836.05
836.041
836.033
836.026
836.02
836.015
836.011
836.007
836.004
836.001
836.144
836.122
836.102
836.086
836.071
836.059
836.048
836.039
836.031
836.024
836.018
836.013
836.009
836.005
836.002
836.169
836.144
836.121
836.101
836.084
836.07
836.057
836.046
836.037
836.029
836.022
836.015
836.01
836.006
836.002
836.201
836.171
836.144
836.121
836.101
836.083
836.068
836.055
836.044
836.034
836.026
836.018
836.012
836.007
836.002
836.241
836.205
836.173
836.145
836.121
836.1
836.082
836.066
836.053
836.041
836.031
836.022
836.015
836.008
836.003
836.292
836.248
836.21
836.176
836.147
836.122
836.1
836.081
836.064
836.05
836.038
836.027
836.018
836.01
836.003
836.357
836.304
836.257
836.216
836.181
836.15
836.123
836.099
836.079
836.062
836.046
836.033
836.022
836.012
836.004
836.44
836.376
836.319
836.269
836.225
836.186
836.153
836.124
836.098
836.077
836.058
836.042
836.028
836.015
836.005
836.549
836.471
836.4
836.338
836.283
836.235
836.193
836.156
836.124
836.097
836.073
836.053
836.035
836.019
836.006
836.693
836.597
836.51
836.432
836.363
836.301
836.248
836.201
836.16
836.125
836.094
836.068
836.045
836.025
836.008
836.887
836.77
836.661
836.563
836.474
836.395
836.325
836.264
836.211
836.164
836.124
836.089
836.059
836.033
836.01
837.153
837.011
836.875
836.75
836.635
836.531
836.439
836.357
836.286
836.223
836.169
836.121
836.08
836.045
836.014
837.522
837.352
837.186
837.026
836.877
836.739
836.614
836.502
836.402
836.315
836.238
836.172
836.114
836.064
836.02
838.036
837.844
837.647
837.449
837.256
837.071
836.899
836.74
836.597
836.469
836.356
836.257
836.17
836.095
836.03
838.743
838.551
838.341
838.116
837.88
837.641
837.403
837.174
836.958
836.759
836.58
836.42
836.279
836.156
836.049
839.682
839.542
839.374
839.178
838.95
838.69
838.401
838.087
837.754
837.418
837.096
836.8
836.534
836.299
836.095
840.838
840.82
840.798
840.769
840.732
840.683
840.619
840.522
840.195
839.549
838.768
837.988
837.316
836.735
836.232
860.174
860.14
859.589
859.195
860.632
860.552
858.051
856.125
854.516
851.913
847.52
840.679
839.22
837.834
836.584
859.959
860.153
860.073
859.656
859.486
859.563
859.611
859.476
859.487
860.123
861.626
860.597
854.643
846.735
839.384
858.183
858.508
858.616
858.501
858.296
858.275
858.436
858.642
858.825
859.313
860.386
859.945
855.074
847.299
839.587
855.345
855.781
856.161
856.503
856.675
856.771
856.899
857.12
857.5
858.203
859.292
859.07
854.838
847.34
839.609
852.968
853.273
853.608
854.137
854.617
854.969
855.247
855.537
855.992
856.758
858.01
858.126
854.246
846.978
839.48
852.795
852.863
852.99
853.178
853.423
853.706
853.952
854.3
855.073
856.283
857.655
857.237
852.802
845.91
839.137
852.937
852.955
853.048
853.125
853.202
853.359
853.663
854.266
855.28
856.717
857.618
856.022
851.08
844.765
838.778
852.88
852.78
852.847
853.035
853.229
853.471
853.966
854.877
856.197
857.447
857.312
854.154
848.951
843.432
838.379
852.98
852.81
852.624
852.715
853.133
853.696
854.548
855.791
857.091
857.471
855.726
851.332
846.102
841.327
837.686
853.302
853.365
853.099
852.798
852.919
853.601
854.663
855.984
857.201
857.419
855.36
851.137
846.062
841.069
837.603
853.381
853.67
853.734
853.482
853.166
853.33
854.166
855.583
857.037
857.457
855.624
851.42
846.057
840.772
837.509
853.264
853.493
853.701
853.826
853.766
853.648
853.949
854.814
855.945
856.655
855.426
851.298
845.769
840.542
837.436
853.422
853.526
853.663
853.789
853.858
853.76
853.646
854.326
856.194
857.471
855.273
850.087
844.792
840.514
837.426
853.319
853.359
853.38
853.479
853.663
853.884
854.321
855.246
855.8
853.951
849.694
845.167
841.272
838.955
836.936
852.794
852.895
853.227
853.603
854.112
854.633
855.054
855.132
854.051
851.644
848.736
845.726
842.693
839.806
837.212
856.495
856.436
856.458
856.434
856.418
856.205
855.827
855.06
853.927
852.445
850.787
848.693
845.996
842.581
838.45
836.019
836.014
836.012
836.011
836.01
836.008
836.007
836.006
836.005
836.004
836.003
836.002
836.001
836.001
836
836.036
836.028
836.023
836.019
836.016
836.013
836.011
836.009
836.007
836.005
836.004
836.003
836.002
836.001
836
836.052
836.042
836.034
836.028
836.023
836.019
836.015
836.012
836.01
836.008
836.006
836.004
836.003
836.002
836
836.065
836.054
836.044
836.037
836.03
836.025
836.02
836.016
836.013
836.01
836.008
836.005
836.004
836.002
836.001
836.077
836.065
836.054
836.045
836.037
836.03
836.025
836.02
836.016
836.012
836.009
836.007
836.004
836.002
836.001
836.091
836.076
836.064
836.053
836.044
836.036
836.03
836.024
836.019
836.015
836.011
836.008
836.005
836.003
836.001
836.105
836.089
836.074
836.062
836.052
836.042
836.035
836.028
836.022
836.017
836.013
836.009
836.006
836.003
836.001
836.123
836.104
836.087
836.073
836.06
836.05
836.041
836.033
836.026
836.02
836.015
836.011
836.007
836.004
836.001
836.144
836.121
836.102
836.085
836.071
836.059
836.048
836.039
836.031
836.024
836.018
836.013
836.009
836.005
836.002
836.17
836.143
836.121
836.101
836.084
836.069
836.057
836.046
836.037
836.028
836.021
836.015
836.01
836.006
836.002
836.202
836.171
836.144
836.12
836.1
836.083
836.068
836.055
836.044
836.034
836.026
836.018
836.012
836.007
836.002
836.242
836.205
836.173
836.145
836.121
836.1
836.082
836.066
836.053
836.041
836.031
836.022
836.015
836.008
836.003
836.292
836.248
836.21
836.176
836.147
836.121
836.099
836.08
836.064
836.05
836.038
836.027
836.018
836.01
836.003
836.357
836.304
836.257
836.216
836.18
836.149
836.122
836.099
836.079
836.061
836.046
836.033
836.022
836.012
836.004
836.44
836.376
836.318
836.268
836.224
836.185
836.152
836.123
836.098
836.076
836.058
836.041
836.027
836.015
836.005
836.549
836.47
836.4
836.337
836.282
836.234
836.192
836.155
836.124
836.096
836.073
836.052
836.035
836.019
836.006
836.693
836.596
836.509
836.431
836.361
836.3
836.247
836.2
836.159
836.124
836.094
836.067
836.045
836.025
836.008
836.887
836.769
836.66
836.561
836.472
836.393
836.324
836.263
836.21
836.163
836.123
836.089
836.059
836.033
836.01
837.152
837.008
836.873
836.747
836.632
836.529
836.437
836.355
836.284
836.222
836.168
836.121
836.08
836.045
836.014
837.52
837.349
837.182
837.022
836.873
836.735
836.61
836.499
836.4
836.313
836.237
836.17
836.113
836.063
836.02
838.032
837.839
837.641
837.444
837.25
837.066
836.894
836.736
836.593
836.466
836.354
836.255
836.169
836.095
836.03
838.739
838.545
838.334
838.108
837.873
837.633
837.396
837.168
836.953
836.755
836.576
836.417
836.277
836.155
836.049
839.677
839.535
839.367
839.17
838.942
838.682
838.393
838.078
837.744
837.408
837.087
836.792
836.529
836.296
836.094
840.833
840.815
840.792
840.765
840.732
840.68
840.617
840.519
840.133
839.455
838.678
837.923
837.273
836.711
836.225
861.134
860.935
860.362
859.195
859.472
860.164
858.746
856.61
854.561
851.437
846.878
840.607
839.169
837.804
836.575
860.669
860.852
860.623
860.105
859.525
859.247
859.081
858.869
858.707
858.923
860.577
860.372
854.983
846.86
839.392
856.879
857.624
857.816
857.721
857.647
857.712
857.896
858.137
858.306
858.672
859.951
859.821
855.3
847.484
839.641
853.754
854.522
854.923
855.227
855.686
856.178
856.589
856.949
857.345
858.04
859.26
858.959
854.572
847.119
839.536
852.746
852.879
853.078
853.515
854.157
854.781
855.278
855.685
856.224
857.136
858.368
857.982
853.705
846.613
839.386
852.953
852.881
852.942
853.218
853.591
853.968
854.287
854.663
855.363
856.556
857.858
857.107
852.516
845.734
839.09
853.547
853.506
853.486
853.562
853.76
853.998
854.199
854.548
855.406
856.735
857.562
855.82
850.825
844.592
838.724
853.691
853.817
853.915
853.975
854.052
854.139
854.329
854.909
856.07
857.301
857.245
854.004
848.73
843.248
838.312
853.527
853.59
853.708
853.916
854.149
854.384
854.873
855.869
857.047
857.42
855.521
851.02
845.858
841.235
837.657
853.467
853.592
853.574
853.599
853.845
854.355
855.137
856.302
857.46
857.552
855.294
850.985
845.918
841.008
837.583
853.346
853.608
853.729
853.677
853.635
853.914
854.735
856.047
857.444
857.757
855.674
851.355
845.977
840.719
837.492
853.24
853.424
853.605
853.748
853.796
853.868
854.294
855.186
856.27
856.935
855.585
851.366
845.784
840.532
837.433
853.45
853.516
853.617
853.717
853.804
853.789
853.771
854.452
856.299
857.58
855.344
850.082
844.753
840.505
837.422
853.302
853.337
853.353
853.447
853.617
853.827
854.24
855.09
855.657
853.81
849.547
845.091
841.272
838.957
836.937
852.846
852.892
853.197
853.513
853.987
854.48
854.87
854.948
853.922
851.561
848.709
845.757
842.823
839.936
837.262
856.471
856.367
856.337
856.261
856.198
856.01
855.599
854.84
853.719
852.262
850.635
848.579
845.929
842.548
838.44
836.039
836.031
836.025
836.021
836.017
836.014
836.012
836.01
836.008
836.006
836.004
836.003
836.002
836.001
836
836.047
836.038
836.031
836.025
836.021
836.017
836.014
836.011
836.009
836.007
836.005
836.004
836.003
836.001
836
836.057
836.047
836.038
836.032
836.026
836.022
836.018
836.014
836.011
836.009
836.007
836.005
836.003
836.002
836.001
836.068
836.056
836.047
836.039
836.032
836.026
836.021
836.017
836.014
836.011
836.008
836.006
836.004
836.002
836.001
836.079
836.066
836.055
836.046
836.038
836.031
836.025
836.02
836.016
836.013
836.01
836.007
836.005
836.003
836.001
836.091
836.077
836.064
836.053
836.044
836.036
836.03
836.024
836.019
836.015
836.011
836.008
836.005
836.003
836.001
836.106
836.089
836.075
836.062
836.052
836.043
836.035
836.028
836.022
836.017
836.013
836.009
836.006
836.003
836.001
836.123
836.104
836.087
836.073
836.06
836.05
836.041
836.033
836.026
836.02
836.015
836.011
836.007
836.004
836.001
836.144
836.121
836.102
836.085
836.071
836.059
836.048
836.039
836.031
836.024
836.018
836.013
836.009
836.005
836.002
836.17
836.143
836.121
836.101
836.084
836.069
836.057
836.046
836.036
836.028
836.021
836.015
836.01
836.006
836.002
836.202
836.171
836.144
836.12
836.1
836.083
836.068
836.055
836.043
836.034
836.026
836.018
836.012
836.007
836.002
836.242
836.205
836.173
836.145
836.12
836.1
836.081
836.066
836.052
836.041
836.031
836.022
836.015
836.008
836.003
836.292
836.248
836.209
836.176
836.146
836.121
836.099
836.08
836.064
836.05
836.037
836.027
836.018
836.01
836.003
836.357
836.303
836.256
836.215
836.18
836.149
836.122
836.099
836.078
836.061
836.046
836.033
836.022
836.012
836.004
836.44
836.375
836.318
836.267
836.223
836.185
836.152
836.123
836.098
836.076
836.057
836.041
836.027
836.015
836.005
836.548
836.469
836.399
836.336
836.281
836.233
836.191
836.155
836.123
836.096
836.073
836.052
836.034
836.019
836.006
836.692
836.595
836.508
836.43
836.36
836.299
836.246
836.199
836.159
836.124
836.093
836.067
836.044
836.025
836.008
836.886
836.767
836.658
836.559
836.47
836.392
836.322
836.262
836.209
836.163
836.123
836.088
836.059
836.033
836.01
837.15
837.006
836.87
836.744
836.63
836.527
836.435
836.354
836.283
836.221
836.167
836.12
836.079
836.044
836.014
837.517
837.346
837.178
837.019
836.869
836.732
836.607
836.496
836.398
836.311
836.235
836.17
836.112
836.063
836.02
838.029
837.835
837.636
837.438
837.245
837.061
836.89
836.732
836.59
836.463
836.352
836.254
836.168
836.094
836.03
838.734
838.539
838.328
838.101
837.866
837.626
837.39
837.162
836.948
836.751
836.573
836.415
836.276
836.154
836.049
839.672
839.529
839.36
839.162
838.933
838.673
838.384
838.069
837.734
837.398
837.079
836.786
836.525
836.294
836.093
840.829
840.807
840.782
840.755
840.723
840.67
840.606
840.513
840.041
839.31
838.53
837.838
837.225
836.687
836.218
861.39
861.232
860.81
859.486
858.746
859.625
859.196
856.487
852.958
847.758
841.325
840.303
838.964
837.685
836.536
858.613
859.299
859.794
859.74
859.301
859.025
858.876
858.66
858.42
858.607
860.069
859.852
854.263
846.264
839.191
854.071
855.374
856.517
857.216
857.558
857.71
857.798
857.947
858.016
858.236
859.462
859.587
855.253
847.405
839.594
852.777
853.354
854.285
855.12
855.793
856.32
856.699
857.005
857.34
857.982
859.154
858.757
854.206
846.797
839.423
853.113
853.287
853.536
854.051
854.807
855.448
855.907
856.222
856.641
857.481
858.556
857.85
853.362
846.377
839.319
853.375
853.526
853.633
854.015
854.545
855.049
855.335
855.515
856.069
856.991
857.851
856.753
852.246
845.681
839.099
853.566
853.752
853.898
854.223
854.705
855.183
855.469
855.542
855.728
856.548
857.602
856.72
851.992
845.283
838.913
853.967
854.204
854.468
854.75
855.078
855.349
855.441
855.515
856.093
857.088
857.286
854.053
848.388
842.724
838.089
854.001
854.257
854.592
854.982
855.27
855.397
855.557
856.094
856.913
857.08
854.802
850.169
845.267
841.24
837.658
853.713
854.018
854.284
854.625
854.986
855.339
855.823
856.744
857.593
857.291
854.538
850.16
845.441
840.971
837.572
853.307
853.63
853.897
854.137
854.391
854.79
855.505
856.723
857.958
857.869
855.323
850.914
845.718
840.678
837.479
853.209
853.335
853.514
853.761
853.991
854.284
854.887
855.842
856.776
857.165
855.448
851.145
845.653
840.531
837.432
853.445
853.477
853.54
853.629
853.765
853.858
854.06
854.889
856.687
857.637
855.105
849.804
844.591
840.512
837.419
853.311
853.319
853.335
853.415
853.58
853.855
854.34
855.171
855.63
853.556
849.244
844.933
841.292
838.97
836.941
852.822
852.89
853.131
853.434
853.881
854.37
854.773
854.844
853.752
851.355
848.538
845.651
842.963
840.531
837.434
856.405
856.255
856.189
856.109
856.049
855.852
855.426
854.667
853.548
852.115
850.514
848.485
845.874
842.526
838.433
836.049
836.04
836.033
836.027
836.023
836.019
836.015
836.012
836.01
836.008
836.006
836.004
836.003
836.002
836
836.054
836.044
836.037
836.03
836.025
836.021
836.017
836.013
836.011
836.008
836.006
836.005
836.003
836.002
836.001
836.061
836.051
836.042
836.035
836.029
836.024
836.019
836.016
836.012
836.01
836.007
836.005
836.003
836.002
836.001
836.07
836.058
836.049
836.04
836.033
836.027
836.022
836.018
836.014
836.011
836.008
836.006
836.004
836.002
836.001
836.08
836.067
836.056
836.047
836.039
836.032
836.026
836.021
836.017
836.013
836.01
836.007
836.005
836.003
836.001
836.092
836.077
836.065
836.054
836.045
836.037
836.03
836.024
836.019
836.015
836.011
836.008
836.005
836.003
836.001
836.106
836.089
836.075
836.062
836.052
836.043
836.035
836.028
836.022
836.017
836.013
836.009
836.006
836.003
836.001
836.123
836.104
836.087
836.073
836.06
836.05
836.041
836.033
836.026
836.02
836.015
836.011
836.007
836.004
836.001
836.144
836.121
836.102
836.085
836.071
836.058
836.048
836.039
836.031
836.024
836.018
836.013
836.009
836.005
836.002
836.169
836.143
836.12
836.101
836.084
836.069
836.057
836.046
836.036
836.028
836.021
836.015
836.01
836.006
836.002
836.201
836.17
836.143
836.12
836.1
836.082
836.067
836.055
836.043
836.034
836.025
836.018
836.012
836.007
836.002
836.241
836.204
836.172
836.144
836.12
836.099
836.081
836.066
836.052
836.041
836.031
836.022
836.015
836.008
836.003
836.292
836.247
836.209
836.175
836.146
836.121
836.099
836.08
836.064
836.049
836.037
836.027
836.018
836.01
836.003
836.356
836.303
836.256
836.215
836.179
836.148
836.121
836.098
836.078
836.061
836.046
836.033
836.022
836.012
836.004
836.439
836.374
836.317
836.267
836.223
836.184
836.151
836.122
836.097
836.076
836.057
836.041
836.027
836.015
836.005
836.547
836.468
836.398
836.335
836.281
836.233
836.191
836.154
836.123
836.096
836.072
836.052
836.034
836.019
836.006
836.691
836.594
836.506
836.428
836.359
836.298
836.245
836.198
836.158
836.123
836.093
836.067
836.044
836.025
836.008
836.884
836.765
836.656
836.557
836.469
836.39
836.321
836.261
836.208
836.162
836.122
836.088
836.058
836.033
836.01
837.147
837.003
836.867
836.742
836.627
836.524
836.433
836.352
836.281
836.22
836.166
836.119
836.079
836.044
836.014
837.513
837.341
837.174
837.015
836.866
836.729
836.605
836.494
836.396
836.31
836.234
836.169
836.112
836.062
836.02
838.023
837.829
837.631
837.433
837.24
837.056
836.885
836.728
836.587
836.461
836.35
836.252
836.167
836.094
836.03
838.727
838.533
838.32
838.094
837.858
837.619
837.383
837.156
836.943
836.746
836.57
836.412
836.274
836.153
836.049
839.666
839.522
839.352
839.153
838.924
838.664
838.375
838.061
837.727
837.392
837.074
836.783
836.522
836.293
836.093
840.826
840.801
840.777
840.749
840.716
840.661
840.594
840.511
840.015
839.284
838.51
837.822
837.214
836.681
836.216
861.513
861.382
861.018
859.117
857.788
859.077
859.191
856.27
852
846.962
841.09
839.946
838.722
837.551
836.494
859.49
860.425
860.551
860.202
859.424
858.852
858.723
858.499
858.248
858.83
860.211
858.851
852.71
845.307
838.897
855.243
856.756
857.721
858.194
858.179
857.991
857.86
857.86
857.837
858.21
859.471
859.339
854.753
846.953
839.436
853.648
854.268
855.247
856.159
856.71
856.962
857.084
857.185
857.386
858.019
859.158
858.613
853.95
846.621
839.381
853.844
854.214
854.577
855.183
855.828
856.335
856.687
856.819
857.012
857.696
858.69
857.883
853.304
846.359
839.322
853.736
854.135
854.425
854.847
855.468
856.08
856.421
856.469
856.75
857.399
857.969
856.878
852.439
845.807
839.138
853.656
854.006
854.279
854.609
855.086
855.648
856.132
856.392
856.422
856.899
857.996
856.955
851.558
844.704
838.722
854.01
854.29
854.612
854.959
855.352
855.777
856.092
856.243
856.565
857.187
856.938
853.002
846.842
841.305
837.681
854.244
854.601
855.03
855.487
855.852
856.056
856.236
856.581
857.066
857.064
854.68
850.043
845.258
841.134
837.624
853.803
854.311
854.846
855.398
855.867
856.245
856.645
857.282
857.769
857.165
854.261
849.928
845.314
840.893
837.547
853.259
853.625
854.125
854.656
855.176
855.721
856.441
857.504
858.402
857.891
855.092
850.637
845.522
840.618
837.46
853.21
853.283
853.463
853.814
854.249
854.78
855.526
856.443
857.234
857.294
855.246
850.794
845.428
840.525
837.43
853.478
853.487
853.5
853.553
853.744
853.989
854.475
855.567
857.244
857.577
854.482
849.224
844.262
840.437
837.382
853.367
853.315
853.304
853.36
853.558
853.948
854.606
855.394
855.519
853.05
848.705
844.672
841.294
838.971
836.941
852.769
852.982
853.143
853.446
853.906
854.435
854.857
854.847
853.604
851.223
848.543
845.794
843.12
840.57
837.446
856.411
856.381
856.177
856.099
855.994
855.787
855.308
854.506
853.369
851.961
850.359
848.308
845.707
842.42
838.4
836.056
836.046
836.038
836.032
836.026
836.021
836.017
836.014
836.011
836.009
836.007
836.005
836.003
836.002
836.001
836.059
836.049
836.04
836.034
836.028
836.023
836.019
836.015
836.012
836.009
836.007
836.005
836.003
836.002
836.001
836.064
836.054
836.045
836.037
836.031
836.025
836.021
836.017
836.013
836.01
836.008
836.006
836.004
836.002
836.001
836.072
836.06
836.05
836.042
836.035
836.028
836.023
836.019
836.015
836.012
836.009
836.006
836.004
836.002
836.001
836.081
836.068
836.057
836.047
836.039
836.032
836.026
836.021
836.017
836.013
836.01
836.007
836.005
836.003
836.001
836.092
836.078
836.065
836.054
836.045
836.037
836.03
836.025
836.019
836.015
836.011
836.008
836.005
836.003
836.001
836.106
836.089
836.075
836.063
836.052
836.043
836.035
836.028
836.022
836.017
836.013
836.009
836.006
836.003
836.001
836.123
836.103
836.087
836.073
836.06
836.05
836.041
836.033
836.026
836.02
836.015
836.011
836.007
836.004
836.001
836.143
836.121
836.102
836.085
836.071
836.058
836.048
836.039
836.031
836.024
836.018
836.013
836.009
836.005
836.002
836.169
836.143
836.12
836.1
836.084
836.069
836.056
836.046
836.036
836.028
836.021
836.015
836.01
836.006
836.002
836.2
836.17
836.143
836.12
836.1
836.082
836.067
836.054
836.043
836.034
836.025
836.018
836.012
836.007
836.002
836.24
836.204
836.172
836.144
836.12
836.099
836.081
836.065
836.052
836.041
836.031
836.022
836.015
836.008
836.003
836.291
836.247
836.208
836.175
836.146
836.12
836.098
836.08
836.063
836.049
836.037
836.027
836.018
836.01
836.003
836.355
836.302
836.255
836.214
836.179
836.148
836.121
836.098
836.078
836.061
836.046
836.033
836.022
836.012
836.004
836.437
836.373
836.316
836.266
836.222
836.184
836.151
836.122
836.097
836.076
836.057
836.041
836.027
836.015
836.005
836.545
836.467
836.396
836.334
836.28
836.232
836.19
836.154
836.123
836.095
836.072
836.052
836.034
836.019
836.006
836.688
836.592
836.505
836.427
836.358
836.297
836.244
836.198
836.158
836.123
836.093
836.067
836.044
836.025
836.008
836.88
836.762
836.653
836.555
836.467
836.389
836.32
836.26
836.207
836.161
836.122
836.088
836.058
836.032
836.01
837.143
836.999
836.864
836.739
836.625
836.522
836.431
836.351
836.28
836.219
836.165
836.119
836.079
836.044
836.014
837.507
837.336
837.169
837.01
836.862
836.725
836.602
836.491
836.394
836.308
836.233
836.168
836.111
836.062
836.02
838.016
837.822
837.624
837.426
837.234
837.051
836.88
836.724
836.584
836.458
836.348
836.251
836.166
836.093
836.029
838.719
838.524
838.312
838.085
837.85
837.611
837.375
837.149
836.936
836.741
836.565
836.409
836.272
836.152
836.048
839.659
839.514
839.343
839.143
838.912
838.651
838.362
838.049
837.715
837.382
837.065
836.776
836.518
836.29
836.092
840.819
840.797
840.772
840.739
840.703
840.649
840.584
840.506
840.001
839.27
838.495
837.809
837.204
836.675
836.214
861.355
861.066
860.752
858.691
856.846
858.57
859.17
855.978
851.711
846.939
840.948
839.834
838.651
837.513
836.483
859.255
860.112
860.298
860.011
859.255
858.618
858.615
858.412
858.082
858.961
860.55
858.399
851.987
844.927
838.815
855.524
856.922
857.85
858.451
858.509
858.242
858.007
857.906
857.722
857.989
859.438
859.428
854.964
847.233
839.559
854.327
855.126
855.892
856.609
857.129
857.351
857.368
857.319
857.319
857.843
859.165
858.884
854.253
846.826
839.451
854.113
854.674
855.23
855.784
856.311
856.724
857.002
857.122
857.171
857.7
858.801
858.384
854.036
846.895
839.488
853.693
854.217
854.834
855.407
855.955
856.469
856.866
857.005
857.085
857.418
858.128
857.737
853.673
846.602
839.353
853.5
853.837
854.317
854.836
855.356
855.901
856.511
856.83
856.866
857.307
858.305
856.898
851.379
844.51
838.643
854.002
854.222
854.528
854.926
855.377
855.895
856.351
856.621
856.947
857.53
857.001
852.817
846.619
841.213
837.65
854.363
854.802
855.194
855.587
855.93
856.214
856.481
856.83
857.321
857.364
854.821
849.984
845.191
841.048
837.596
853.823
854.53
855.214
855.841
856.356
856.725
857.038
857.525
857.972
857.263
854.117
849.753
845.186
840.807
837.52
853.218
853.642
854.332
855.101
855.764
856.377
857.018
857.941
858.714
857.993
854.958
850.418
845.349
840.56
837.442
853.192
853.245
853.446
853.963
854.601
855.326
856.185
857.103
857.659
857.299
854.881
850.343
845.173
840.519
837.428
853.488
853.462
853.453
853.526
853.779
854.136
854.803
856.121
857.692
857.58
854.133
848.865
844.008
840.288
837.334
853.373
853.302
853.27
853.36
853.629
854.123
854.901
855.64
855.326
852.558
848.285
844.432
841.272
838.958
836.937
852.767
852.927
853.144
853.522
854.025
854.604
855.065
854.954
853.478
851.061
848.433
845.757
843.133
840.622
837.463
856.378
856.285
856.138
856.075
855.978
855.764
855.27
854.43
853.266
851.877
850.31
848.383
845.857
842.532
838.437
836.059
836.049
836.041
836.034
836.028
836.023
836.019
836.015
836.012
836.009
836.007
836.005
836.003
836.002
836.001
836.062
836.051
836.043
836.036
836.03
836.024
836.02
836.016
836.013
836.01
836.007
836.005
836.004
836.002
836.001
836.066
836.056
836.046
836.039
836.032
836.026
836.022
836.017
836.014
836.011
836.008
836.006
836.004
836.002
836.001
836.073
836.061
836.051
836.043
836.035
836.029
836.024
836.019
836.015
836.012
836.009
836.006
836.004
836.002
836.001
836.082
836.069
836.058
836.048
836.04
836.033
836.027
836.022
836.017
836.013
836.01
836.007
836.005
836.003
836.001
836.092
836.078
836.065
836.055
836.045
836.037
836.031
836.025
836.02
836.015
836.011
836.008
836.005
836.003
836.001
836.106
836.089
836.075
836.063
836.052
836.043
836.035
836.028
836.023
836.018
836.013
836.009
836.006
836.004
836.001
836.122
836.103
836.087
836.073
836.06
836.05
836.041
836.033
836.026
836.02
836.015
836.011
836.007
836.004
836.001
836.143
836.121
836.101
836.085
836.071