/*--------------------------------*- C++ -*----------------------------------*\
  =========                 |
  \\      /  F ield         | OpenFOAM: The Open Source CFD Toolbox
   \\    /   O peration     | Website:  https://openfoam.org
    \\  /    A nd           | Version:  6
     \\/     M anipulation  |
\*---------------------------------------------------------------------------*/
FoamFile
{
    version     2.0;
    format      ascii;
    class       volScalarField;
    location    "2239.98991017056005";
    object      H;
}
// * * * * * * * * * * * * * * * * * * * * * * * * * * * * * * * * * * * * * //

dimensions      [1 -1 -2 0 0 0 0];

internalField   nonuniform List<scalar> 
120400
(
2.99034e+09
2.99077e+09
2.99093e+09
2.991e+09
2.99104e+09
2.99106e+09
2.99107e+09
2.99107e+09
2.99108e+09
2.99108e+09
2.99108e+09
2.99108e+09
2.99108e+09
2.99108e+09
2.99108e+09
2.99103e+09
2.99105e+09
2.99107e+09
2.99108e+09
2.99109e+09
2.99109e+09
2.99109e+09
2.99109e+09
2.99109e+09
2.99109e+09
2.99109e+09
2.99109e+09
2.99109e+09
2.99108e+09
2.99108e+09
2.99119e+09
2.99117e+09
2.99115e+09
2.99114e+09
2.99113e+09
2.99113e+09
2.99112e+09
2.99111e+09
2.99111e+09
2.9911e+09
2.9911e+09
2.99109e+09
2.99109e+09
2.99109e+09
2.99108e+09
2.99126e+09
2.99123e+09
2.99121e+09
2.99118e+09
2.99117e+09
2.99115e+09
2.99114e+09
2.99113e+09
2.99112e+09
2.99111e+09
2.9911e+09
2.9911e+09
2.99109e+09
2.99109e+09
2.99108e+09
2.99131e+09
2.99127e+09
2.99124e+09
2.99122e+09
2.99119e+09
2.99117e+09
2.99116e+09
2.99114e+09
2.99113e+09
2.99112e+09
2.99111e+09
2.9911e+09
2.9911e+09
2.99109e+09
2.99108e+09
2.99135e+09
2.99131e+09
2.99127e+09
2.99124e+09
2.99122e+09
2.99119e+09
2.99117e+09
2.99115e+09
2.99114e+09
2.99113e+09
2.99112e+09
2.99111e+09
2.9911e+09
2.99109e+09
2.99109e+09
2.9914e+09
2.99135e+09
2.99131e+09
2.99127e+09
2.99124e+09
2.99121e+09
2.99119e+09
2.99117e+09
2.99115e+09
2.99114e+09
2.99112e+09
2.99111e+09
2.9911e+09
2.99109e+09
2.99109e+09
2.99145e+09
2.99139e+09
2.99134e+09
2.9913e+09
2.99126e+09
2.99123e+09
2.99121e+09
2.99118e+09
2.99116e+09
2.99114e+09
2.99113e+09
2.99112e+09
2.9911e+09
2.99109e+09
2.99109e+09
2.9915e+09
2.99144e+09
2.99138e+09
2.99134e+09
2.99129e+09
2.99126e+09
2.99122e+09
2.9912e+09
2.99117e+09
2.99115e+09
2.99114e+09
2.99112e+09
2.99111e+09
2.9911e+09
2.99109e+09
2.99157e+09
2.9915e+09
2.99143e+09
2.99138e+09
2.99133e+09
2.99128e+09
2.99125e+09
2.99122e+09
2.99119e+09
2.99117e+09
2.99115e+09
2.99113e+09
2.99111e+09
2.9911e+09
2.99109e+09
2.99165e+09
2.99157e+09
2.99149e+09
2.99143e+09
2.99137e+09
2.99132e+09
2.99128e+09
2.99124e+09
2.99121e+09
2.99118e+09
2.99116e+09
2.99114e+09
2.99112e+09
2.9911e+09
2.99109e+09
2.99175e+09
2.99165e+09
2.99156e+09
2.99149e+09
2.99142e+09
2.99136e+09
2.99131e+09
2.99127e+09
2.99123e+09
2.9912e+09
2.99117e+09
2.99114e+09
2.99112e+09
2.99111e+09
2.99109e+09
2.99187e+09
2.99175e+09
2.99165e+09
2.99156e+09
2.99148e+09
2.99141e+09
2.99135e+09
2.9913e+09
2.99126e+09
2.99122e+09
2.99118e+09
2.99116e+09
2.99113e+09
2.99111e+09
2.99109e+09
2.99202e+09
2.99188e+09
2.99176e+09
2.99165e+09
2.99156e+09
2.99147e+09
2.9914e+09
2.99134e+09
2.99129e+09
2.99124e+09
2.9912e+09
2.99117e+09
2.99114e+09
2.99112e+09
2.99109e+09
2.9922e+09
2.99204e+09
2.99189e+09
2.99176e+09
2.99165e+09
2.99155e+09
2.99147e+09
2.9914e+09
2.99133e+09
2.99128e+09
2.99123e+09
2.99119e+09
2.99115e+09
2.99112e+09
2.99109e+09
2.99243e+09
2.99224e+09
2.99206e+09
2.99191e+09
2.99177e+09
2.99165e+09
2.99155e+09
2.99146e+09
2.99139e+09
2.99132e+09
2.99126e+09
2.99121e+09
2.99117e+09
2.99113e+09
2.9911e+09
2.99273e+09
2.99249e+09
2.99228e+09
2.99209e+09
2.99193e+09
2.99178e+09
2.99166e+09
2.99155e+09
2.99145e+09
2.99137e+09
2.9913e+09
2.99124e+09
2.99119e+09
2.99114e+09
2.9911e+09
2.99311e+09
2.99282e+09
2.99257e+09
2.99234e+09
2.99213e+09
2.99195e+09
2.9918e+09
2.99166e+09
2.99155e+09
2.99144e+09
2.99136e+09
2.99128e+09
2.99121e+09
2.99116e+09
2.99111e+09
2.99361e+09
2.99326e+09
2.99295e+09
2.99266e+09
2.99241e+09
2.99219e+09
2.99199e+09
2.99182e+09
2.99167e+09
2.99154e+09
2.99143e+09
2.99133e+09
2.99125e+09
2.99118e+09
2.99111e+09
2.99428e+09
2.99386e+09
2.99347e+09
2.99311e+09
2.99279e+09
2.99251e+09
2.99226e+09
2.99204e+09
2.99184e+09
2.99168e+09
2.99153e+09
2.99141e+09
2.9913e+09
2.9912e+09
2.99112e+09
2.9952e+09
2.99468e+09
2.9942e+09
2.99375e+09
2.99334e+09
2.99297e+09
2.99264e+09
2.99235e+09
2.9921e+09
2.99188e+09
2.99168e+09
2.99152e+09
2.99137e+09
2.99124e+09
2.99113e+09
2.99647e+09
2.99586e+09
2.99526e+09
2.99469e+09
2.99416e+09
2.99367e+09
2.99323e+09
2.99284e+09
2.99249e+09
2.99219e+09
2.99192e+09
2.99168e+09
2.99148e+09
2.99131e+09
2.99115e+09
2.99825e+09
2.99756e+09
2.99684e+09
2.99613e+09
2.99545e+09
2.99479e+09
2.99419e+09
2.99364e+09
2.99314e+09
2.9927e+09
2.99231e+09
2.99197e+09
2.99167e+09
2.99141e+09
2.99119e+09
3.00075e+09
3.00003e+09
2.99926e+09
2.99843e+09
2.99758e+09
2.99673e+09
2.99589e+09
2.9951e+09
2.99435e+09
2.99367e+09
2.99305e+09
2.99251e+09
2.99203e+09
2.99161e+09
2.99125e+09
3.00413e+09
3.00358e+09
3.00292e+09
3.00217e+09
3.00132e+09
3.00037e+09
2.99933e+09
2.99821e+09
2.99702e+09
2.99585e+09
2.99474e+09
2.99375e+09
2.99286e+09
2.99208e+09
2.9914e+09
3.27953e+09
3.24587e+09
3.20874e+09
3.16573e+09
3.12129e+09
3.07921e+09
3.04003e+09
3.00708e+09
3.00508e+09
3.00238e+09
2.99961e+09
2.99722e+09
2.99516e+09
2.99336e+09
2.9918e+09
3.88647e+09
3.88643e+09
3.8794e+09
3.87186e+09
3.87479e+09
3.87851e+09
3.87418e+09
3.86343e+09
3.85026e+09
3.83136e+09
3.16418e+09
3.00405e+09
3.00004e+09
2.9962e+09
2.99272e+09
3.88594e+09
3.88606e+09
3.88574e+09
3.88533e+09
3.88501e+09
3.8849e+09
3.8849e+09
3.88617e+09
3.88951e+09
3.89348e+09
3.89232e+09
3.87609e+09
3.8491e+09
3.8184e+09
3.00086e+09
3.88255e+09
3.88282e+09
3.88331e+09
3.88381e+09
3.88422e+09
3.88457e+09
3.88475e+09
3.88493e+09
3.88565e+09
3.88703e+09
3.88712e+09
3.88055e+09
3.85845e+09
3.8249e+09
3.00241e+09
3.87497e+09
3.87422e+09
3.87472e+09
3.87629e+09
3.87821e+09
3.87999e+09
3.88141e+09
3.88242e+09
3.88348e+09
3.88497e+09
3.88616e+09
3.88262e+09
3.86343e+09
3.82876e+09
3.00334e+09
3.87286e+09
3.87133e+09
3.87124e+09
3.87245e+09
3.87444e+09
3.87647e+09
3.87826e+09
3.87958e+09
3.88116e+09
3.88346e+09
3.88507e+09
3.88055e+09
3.86001e+09
3.82608e+09
3.0027e+09
3.87069e+09
3.86961e+09
3.86987e+09
3.8709e+09
3.87262e+09
3.8749e+09
3.87722e+09
3.87954e+09
3.88174e+09
3.88347e+09
3.88263e+09
3.8742e+09
3.85268e+09
3.82239e+09
3.00205e+09
3.86768e+09
3.8682e+09
3.86884e+09
3.86951e+09
3.87058e+09
3.87241e+09
3.87516e+09
3.87811e+09
3.88086e+09
3.88256e+09
3.88168e+09
3.87507e+09
3.8558e+09
3.82468e+09
3.00251e+09
3.86767e+09
3.8682e+09
3.86882e+09
3.86957e+09
3.87065e+09
3.87238e+09
3.87455e+09
3.87704e+09
3.87962e+09
3.88112e+09
3.88016e+09
3.87374e+09
3.8525e+09
3.82081e+09
3.00133e+09
3.86907e+09
3.86913e+09
3.86938e+09
3.8699e+09
3.87074e+09
3.87198e+09
3.87365e+09
3.8757e+09
3.87811e+09
3.88017e+09
3.88036e+09
3.87002e+09
3.84397e+09
3.81451e+09
2.99983e+09
3.86996e+09
3.87052e+09
3.87087e+09
3.87115e+09
3.87166e+09
3.87248e+09
3.87362e+09
3.87533e+09
3.8775e+09
3.87857e+09
3.87176e+09
3.85189e+09
3.82559e+09
3.72901e+09
2.99722e+09
3.86564e+09
3.86658e+09
3.86846e+09
3.86994e+09
3.87086e+09
3.87169e+09
3.87284e+09
3.87444e+09
3.87546e+09
3.87208e+09
3.85947e+09
3.83964e+09
3.81964e+09
3.4021e+09
2.99674e+09
3.86528e+09
3.86701e+09
3.86942e+09
3.87157e+09
3.873e+09
3.87365e+09
3.87405e+09
3.8744e+09
3.87316e+09
3.86753e+09
3.85569e+09
3.83952e+09
3.82047e+09
3.1341e+09
2.99637e+09
3.85697e+09
3.85812e+09
3.86028e+09
3.863e+09
3.8661e+09
3.86909e+09
3.87157e+09
3.87349e+09
3.87519e+09
3.87619e+09
3.87406e+09
3.86297e+09
3.8404e+09
3.81345e+09
2.99962e+09
3.87798e+09
3.87784e+09
3.8778e+09
3.87773e+09
3.87749e+09
3.87699e+09
3.87606e+09
3.87442e+09
3.87166e+09
3.86661e+09
3.85795e+09
3.84487e+09
3.82841e+09
3.8103e+09
3.00025e+09
2.99094e+09
2.99099e+09
2.99103e+09
2.99105e+09
2.99107e+09
2.99108e+09
2.99108e+09
2.99108e+09
2.99108e+09
2.99108e+09
2.99108e+09
2.99108e+09
2.99108e+09
2.99108e+09
2.99108e+09
2.99112e+09
2.9911e+09
2.9911e+09
2.9911e+09
2.9911e+09
2.9911e+09
2.9911e+09
2.9911e+09
2.99109e+09
2.99109e+09
2.99109e+09
2.99109e+09
2.99109e+09
2.99108e+09
2.99108e+09
2.99121e+09
2.99118e+09
2.99117e+09
2.99115e+09
2.99114e+09
2.99113e+09
2.99112e+09
2.99111e+09
2.99111e+09
2.9911e+09
2.9911e+09
2.99109e+09
2.99109e+09
2.99109e+09
2.99108e+09
2.99127e+09
2.99124e+09
2.99121e+09
2.99119e+09
2.99117e+09
2.99115e+09
2.99114e+09
2.99113e+09
2.99112e+09
2.99111e+09
2.9911e+09
2.9911e+09
2.99109e+09
2.99109e+09
2.99108e+09
2.99131e+09
2.99128e+09
2.99124e+09
2.99122e+09
2.99119e+09
2.99117e+09
2.99116e+09
2.99114e+09
2.99113e+09
2.99112e+09
2.99111e+09
2.9911e+09
2.9911e+09
2.99109e+09
2.99108e+09
2.99136e+09
2.99131e+09
2.99127e+09
2.99124e+09
2.99121e+09
2.99119e+09
2.99117e+09
2.99115e+09
2.99114e+09
2.99113e+09
2.99112e+09
2.99111e+09
2.9911e+09
2.99109e+09
2.99109e+09
2.9914e+09
2.99135e+09
2.99131e+09
2.99127e+09
2.99124e+09
2.99121e+09
2.99119e+09
2.99117e+09
2.99115e+09
2.99113e+09
2.99112e+09
2.99111e+09
2.9911e+09
2.99109e+09
2.99109e+09
2.99145e+09
2.99139e+09
2.99134e+09
2.9913e+09
2.99126e+09
2.99123e+09
2.9912e+09
2.99118e+09
2.99116e+09
2.99114e+09
2.99113e+09
2.99112e+09
2.9911e+09
2.99109e+09
2.99109e+09
2.9915e+09
2.99144e+09
2.99138e+09
2.99133e+09
2.99129e+09
2.99125e+09
2.99122e+09
2.9912e+09
2.99117e+09
2.99115e+09
2.99114e+09
2.99112e+09
2.99111e+09
2.9911e+09
2.99109e+09
2.99157e+09
2.9915e+09
2.99143e+09
2.99137e+09
2.99133e+09
2.99128e+09
2.99125e+09
2.99122e+09
2.99119e+09
2.99116e+09
2.99114e+09
2.99113e+09
2.99111e+09
2.9911e+09
2.99109e+09
2.99165e+09
2.99157e+09
2.99149e+09
2.99142e+09
2.99137e+09
2.99132e+09
2.99127e+09
2.99124e+09
2.99121e+09
2.99118e+09
2.99115e+09
2.99113e+09
2.99112e+09
2.9911e+09
2.99109e+09
2.99175e+09
2.99165e+09
2.99156e+09
2.99148e+09
2.99142e+09
2.99136e+09
2.99131e+09
2.99126e+09
2.99123e+09
2.9912e+09
2.99117e+09
2.99114e+09
2.99112e+09
2.99111e+09
2.99109e+09
2.99187e+09
2.99175e+09
2.99165e+09
2.99156e+09
2.99148e+09
2.99141e+09
2.99135e+09
2.9913e+09
2.99125e+09
2.99122e+09
2.99118e+09
2.99115e+09
2.99113e+09
2.99111e+09
2.99109e+09
2.99202e+09
2.99188e+09
2.99175e+09
2.99165e+09
2.99155e+09
2.99147e+09
2.9914e+09
2.99134e+09
2.99129e+09
2.99124e+09
2.9912e+09
2.99117e+09
2.99114e+09
2.99111e+09
2.99109e+09
2.9922e+09
2.99204e+09
2.99189e+09
2.99176e+09
2.99165e+09
2.99155e+09
2.99146e+09
2.99139e+09
2.99133e+09
2.99127e+09
2.99123e+09
2.99119e+09
2.99115e+09
2.99112e+09
2.99109e+09
2.99244e+09
2.99224e+09
2.99206e+09
2.9919e+09
2.99177e+09
2.99165e+09
2.99155e+09
2.99146e+09
2.99138e+09
2.99132e+09
2.99126e+09
2.99121e+09
2.99117e+09
2.99113e+09
2.9911e+09
2.99273e+09
2.99249e+09
2.99228e+09
2.99209e+09
2.99192e+09
2.99178e+09
2.99165e+09
2.99154e+09
2.99145e+09
2.99137e+09
2.9913e+09
2.99124e+09
2.99119e+09
2.99114e+09
2.9911e+09
2.99311e+09
2.99282e+09
2.99256e+09
2.99233e+09
2.99213e+09
2.99195e+09
2.99179e+09
2.99166e+09
2.99154e+09
2.99144e+09
2.99135e+09
2.99128e+09
2.99121e+09
2.99115e+09
2.99111e+09
2.99361e+09
2.99326e+09
2.99294e+09
2.99266e+09
2.9924e+09
2.99218e+09
2.99198e+09
2.99181e+09
2.99166e+09
2.99154e+09
2.99142e+09
2.99133e+09
2.99125e+09
2.99117e+09
2.99111e+09
2.99429e+09
2.99386e+09
2.99346e+09
2.9931e+09
2.99278e+09
2.9925e+09
2.99225e+09
2.99203e+09
2.99184e+09
2.99167e+09
2.99153e+09
2.9914e+09
2.99129e+09
2.9912e+09
2.99112e+09
2.9952e+09
2.99468e+09
2.99419e+09
2.99374e+09
2.99333e+09
2.99296e+09
2.99263e+09
2.99234e+09
2.99209e+09
2.99187e+09
2.99168e+09
2.99151e+09
2.99137e+09
2.99124e+09
2.99113e+09
2.99648e+09
2.99586e+09
2.99525e+09
2.99468e+09
2.99415e+09
2.99366e+09
2.99322e+09
2.99283e+09
2.99248e+09
2.99218e+09
2.99191e+09
2.99168e+09
2.99148e+09
2.9913e+09
2.99115e+09
2.99826e+09
2.99756e+09
2.99684e+09
2.99613e+09
2.99544e+09
2.99478e+09
2.99418e+09
2.99363e+09
2.99313e+09
2.99269e+09
2.9923e+09
2.99196e+09
2.99167e+09
2.99141e+09
2.99119e+09
3.00076e+09
3.00004e+09
2.99926e+09
2.99843e+09
2.99758e+09
2.99672e+09
2.99589e+09
2.99509e+09
2.99434e+09
2.99366e+09
2.99304e+09
2.9925e+09
2.99203e+09
2.99161e+09
2.99125e+09
3.00414e+09
3.00359e+09
3.00293e+09
3.00218e+09
3.00133e+09
3.00038e+09
2.99934e+09
2.99822e+09
2.99705e+09
2.99587e+09
2.99476e+09
2.99376e+09
2.99286e+09
2.99208e+09
2.9914e+09
3.28177e+09
3.25329e+09
3.21163e+09
3.17112e+09
3.13069e+09
3.08873e+09
3.04384e+09
3.0085e+09
3.00544e+09
3.00277e+09
2.99992e+09
2.99744e+09
2.9953e+09
2.99344e+09
2.99183e+09
3.89195e+09
3.89052e+09
3.87933e+09
3.86912e+09
3.87179e+09
3.87647e+09
3.87469e+09
3.86572e+09
3.85344e+09
3.83413e+09
3.29292e+09
3.00447e+09
3.00032e+09
2.99636e+09
2.99276e+09
3.88741e+09
3.88907e+09
3.88919e+09
3.88879e+09
3.88852e+09
3.88819e+09
3.88781e+09
3.88846e+09
3.89179e+09
3.89551e+09
3.89262e+09
3.87628e+09
3.84988e+09
3.81934e+09
3.00113e+09
3.88105e+09
3.88341e+09
3.88536e+09
3.88663e+09
3.88743e+09
3.88788e+09
3.88786e+09
3.88792e+09
3.88861e+09
3.88986e+09
3.89003e+09
3.88253e+09
3.85894e+09
3.82506e+09
3.00249e+09
3.87442e+09
3.87678e+09
3.87899e+09
3.88099e+09
3.88261e+09
3.88383e+09
3.88467e+09
3.88529e+09
3.88632e+09
3.88816e+09
3.88879e+09
3.8821e+09
3.86035e+09
3.82706e+09
3.00313e+09
3.87063e+09
3.87116e+09
3.8723e+09
3.87395e+09
3.87595e+09
3.87805e+09
3.88005e+09
3.88184e+09
3.88395e+09
3.88657e+09
3.88743e+09
3.88119e+09
3.86046e+09
3.82778e+09
3.00336e+09
3.87204e+09
3.87121e+09
3.87077e+09
3.87108e+09
3.87215e+09
3.87395e+09
3.87624e+09
3.87876e+09
3.88166e+09
3.88499e+09
3.88613e+09
3.87888e+09
3.85728e+09
3.8253e+09
3.0027e+09
3.87078e+09
3.87068e+09
3.87047e+09
3.87043e+09
3.8708e+09
3.87193e+09
3.874e+09
3.87695e+09
3.88085e+09
3.88446e+09
3.8843e+09
3.87626e+09
3.85564e+09
3.82499e+09
3.00273e+09
3.86571e+09
3.86694e+09
3.86804e+09
3.86902e+09
3.86986e+09
3.87097e+09
3.87272e+09
3.8753e+09
3.87889e+09
3.88257e+09
3.88278e+09
3.87555e+09
3.85485e+09
3.82357e+09
3.0022e+09
3.86471e+09
3.86583e+09
3.86675e+09
3.86771e+09
3.86869e+09
3.86989e+09
3.87152e+09
3.87374e+09
3.8769e+09
3.8801e+09
3.8805e+09
3.87353e+09
3.85174e+09
3.8208e+09
3.00144e+09
3.86528e+09
3.86697e+09
3.86817e+09
3.86903e+09
3.86978e+09
3.87069e+09
3.872e+09
3.87371e+09
3.87612e+09
3.87836e+09
3.87616e+09
3.86232e+09
3.83687e+09
3.81067e+09
2.99893e+09
3.86132e+09
3.86335e+09
3.8658e+09
3.86766e+09
3.86884e+09
3.8699e+09
3.87133e+09
3.87316e+09
3.87477e+09
3.87368e+09
3.86391e+09
3.84395e+09
3.8211e+09
3.46825e+09
2.99683e+09
3.86186e+09
3.86404e+09
3.86698e+09
3.86978e+09
3.87154e+09
3.87233e+09
3.87289e+09
3.87344e+09
3.87318e+09
3.86888e+09
3.85732e+09
3.84011e+09
3.82062e+09
3.14459e+09
2.99638e+09
3.85541e+09
3.85724e+09
3.86003e+09
3.86333e+09
3.86663e+09
3.8695e+09
3.87173e+09
3.87348e+09
3.87507e+09
3.87608e+09
3.87382e+09
3.8632e+09
3.84124e+09
3.81412e+09
2.99978e+09
3.87835e+09
3.87829e+09
3.87833e+09
3.87826e+09
3.87808e+09
3.87756e+09
3.8766e+09
3.87503e+09
3.87246e+09
3.8678e+09
3.85947e+09
3.84647e+09
3.82964e+09
3.81094e+09
3.00038e+09
2.99112e+09
2.99111e+09
2.99111e+09
2.99111e+09
2.9911e+09
2.9911e+09
2.9911e+09
2.9911e+09
2.99109e+09
2.99109e+09
2.99109e+09
2.99109e+09
2.99109e+09
2.99108e+09
2.99108e+09
2.99118e+09
2.99116e+09
2.99114e+09
2.99113e+09
2.99112e+09
2.99112e+09
2.99111e+09
2.99111e+09
2.9911e+09
2.9911e+09
2.99109e+09
2.99109e+09
2.99109e+09
2.99109e+09
2.99108e+09
2.99123e+09
2.9912e+09
2.99118e+09
2.99116e+09
2.99115e+09
2.99114e+09
2.99113e+09
2.99112e+09
2.99111e+09
2.99111e+09
2.9911e+09
2.99109e+09
2.99109e+09
2.99109e+09
2.99108e+09
2.99128e+09
2.99124e+09
2.99122e+09
2.99119e+09
2.99117e+09
2.99116e+09
2.99114e+09
2.99113e+09
2.99112e+09
2.99111e+09
2.99111e+09
2.9911e+09
2.99109e+09
2.99109e+09
2.99108e+09
2.99132e+09
2.99128e+09
2.99125e+09
2.99122e+09
2.99119e+09
2.99117e+09
2.99116e+09
2.99114e+09
2.99113e+09
2.99112e+09
2.99111e+09
2.9911e+09
2.9911e+09
2.99109e+09
2.99108e+09
2.99136e+09
2.99131e+09
2.99128e+09
2.99124e+09
2.99122e+09
2.99119e+09
2.99117e+09
2.99115e+09
2.99114e+09
2.99113e+09
2.99112e+09
2.99111e+09
2.9911e+09
2.99109e+09
2.99109e+09
2.9914e+09
2.99135e+09
2.99131e+09
2.99127e+09
2.99124e+09
2.99121e+09
2.99119e+09
2.99117e+09
2.99115e+09
2.99113e+09
2.99112e+09
2.99111e+09
2.9911e+09
2.99109e+09
2.99109e+09
2.99145e+09
2.99139e+09
2.99134e+09
2.9913e+09
2.99126e+09
2.99123e+09
2.9912e+09
2.99118e+09
2.99116e+09
2.99114e+09
2.99113e+09
2.99112e+09
2.9911e+09
2.99109e+09
2.99109e+09
2.99151e+09
2.99144e+09
2.99138e+09
2.99133e+09
2.99129e+09
2.99125e+09
2.99122e+09
2.9912e+09
2.99117e+09
2.99115e+09
2.99114e+09
2.99112e+09
2.99111e+09
2.9911e+09
2.99109e+09
2.99157e+09
2.9915e+09
2.99143e+09
2.99137e+09
2.99132e+09
2.99128e+09
2.99125e+09
2.99121e+09
2.99119e+09
2.99116e+09
2.99114e+09
2.99113e+09
2.99111e+09
2.9911e+09
2.99109e+09
2.99165e+09
2.99157e+09
2.99149e+09
2.99142e+09
2.99137e+09
2.99132e+09
2.99127e+09
2.99124e+09
2.99121e+09
2.99118e+09
2.99115e+09
2.99113e+09
2.99112e+09
2.9911e+09
2.99109e+09
2.99175e+09
2.99165e+09
2.99156e+09
2.99148e+09
2.99141e+09
2.99136e+09
2.99131e+09
2.99126e+09
2.99123e+09
2.99119e+09
2.99117e+09
2.99114e+09
2.99112e+09
2.99111e+09
2.99109e+09
2.99187e+09
2.99175e+09
2.99165e+09
2.99155e+09
2.99148e+09
2.99141e+09
2.99135e+09
2.9913e+09
2.99125e+09
2.99122e+09
2.99118e+09
2.99115e+09
2.99113e+09
2.99111e+09
2.99109e+09
2.99202e+09
2.99188e+09
2.99175e+09
2.99164e+09
2.99155e+09
2.99147e+09
2.9914e+09
2.99134e+09
2.99129e+09
2.99124e+09
2.9912e+09
2.99117e+09
2.99114e+09
2.99111e+09
2.99109e+09
2.99221e+09
2.99204e+09
2.99189e+09
2.99176e+09
2.99165e+09
2.99155e+09
2.99146e+09
2.99139e+09
2.99133e+09
2.99127e+09
2.99123e+09
2.99119e+09
2.99115e+09
2.99112e+09
2.99109e+09
2.99244e+09
2.99224e+09
2.99206e+09
2.9919e+09
2.99177e+09
2.99165e+09
2.99154e+09
2.99146e+09
2.99138e+09
2.99131e+09
2.99126e+09
2.99121e+09
2.99117e+09
2.99113e+09
2.9911e+09
2.99274e+09
2.99249e+09
2.99228e+09
2.99209e+09
2.99192e+09
2.99178e+09
2.99165e+09
2.99154e+09
2.99145e+09
2.99137e+09
2.9913e+09
2.99124e+09
2.99118e+09
2.99114e+09
2.9911e+09
2.99312e+09
2.99282e+09
2.99256e+09
2.99233e+09
2.99212e+09
2.99195e+09
2.99179e+09
2.99166e+09
2.99154e+09
2.99144e+09
2.99135e+09
2.99128e+09
2.99121e+09
2.99115e+09
2.99111e+09
2.99362e+09
2.99326e+09
2.99294e+09
2.99265e+09
2.9924e+09
2.99217e+09
2.99198e+09
2.99181e+09
2.99166e+09
2.99153e+09
2.99142e+09
2.99133e+09
2.99124e+09
2.99117e+09
2.99111e+09
2.99429e+09
2.99386e+09
2.99346e+09
2.9931e+09
2.99278e+09
2.99249e+09
2.99224e+09
2.99202e+09
2.99183e+09
2.99167e+09
2.99152e+09
2.9914e+09
2.99129e+09
2.9912e+09
2.99112e+09
2.99521e+09
2.99469e+09
2.99419e+09
2.99374e+09
2.99333e+09
2.99296e+09
2.99263e+09
2.99234e+09
2.99209e+09
2.99187e+09
2.99167e+09
2.99151e+09
2.99136e+09
2.99124e+09
2.99113e+09
2.99649e+09
2.99586e+09
2.99525e+09
2.99468e+09
2.99414e+09
2.99366e+09
2.99322e+09
2.99282e+09
2.99248e+09
2.99217e+09
2.99191e+09
2.99168e+09
2.99148e+09
2.9913e+09
2.99115e+09
2.99828e+09
2.99756e+09
2.99684e+09
2.99612e+09
2.99543e+09
2.99478e+09
2.99417e+09
2.99362e+09
2.99313e+09
2.99269e+09
2.9923e+09
2.99196e+09
2.99166e+09
2.99141e+09
2.99119e+09
3.00077e+09
3.00005e+09
2.99926e+09
2.99843e+09
2.99758e+09
2.99672e+09
2.99589e+09
2.99509e+09
2.99434e+09
2.99366e+09
2.99304e+09
2.9925e+09
2.99203e+09
2.99161e+09
2.99125e+09
3.00415e+09
3.00359e+09
3.00293e+09
3.00218e+09
3.00133e+09
3.00038e+09
2.99934e+09
2.99823e+09
2.99705e+09
2.99587e+09
2.99476e+09
2.99376e+09
2.99287e+09
2.99208e+09
2.9914e+09
3.2765e+09
3.24766e+09
3.20969e+09
3.17033e+09
3.13331e+09
3.08864e+09
3.04122e+09
3.00806e+09
3.0054e+09
3.00276e+09
2.99992e+09
2.99745e+09
2.9953e+09
2.99344e+09
2.99183e+09
3.89366e+09
3.89396e+09
3.88091e+09
3.86768e+09
3.87175e+09
3.87432e+09
3.86765e+09
3.86071e+09
3.84982e+09
3.83207e+09
3.29135e+09
3.00446e+09
3.00032e+09
2.99636e+09
2.99276e+09
3.89117e+09
3.89238e+09
3.8923e+09
3.89102e+09
3.89048e+09
3.8899e+09
3.88928e+09
3.89136e+09
3.89434e+09
3.89548e+09
3.89027e+09
3.87199e+09
3.84553e+09
3.81686e+09
3.00057e+09
3.88105e+09
3.88408e+09
3.88644e+09
3.88803e+09
3.88906e+09
3.88938e+09
3.88932e+09
3.89004e+09
3.8913e+09
3.89243e+09
3.89047e+09
3.87981e+09
3.85506e+09
3.82299e+09
3.00209e+09
3.87319e+09
3.87566e+09
3.87797e+09
3.88086e+09
3.88364e+09
3.8857e+09
3.88711e+09
3.88836e+09
3.89007e+09
3.89159e+09
3.88961e+09
3.87925e+09
3.856e+09
3.82432e+09
3.0025e+09
3.86799e+09
3.86902e+09
3.87065e+09
3.87302e+09
3.87596e+09
3.87905e+09
3.88187e+09
3.88439e+09
3.88726e+09
3.88983e+09
3.88847e+09
3.87881e+09
3.85609e+09
3.82446e+09
3.00253e+09
3.86919e+09
3.86914e+09
3.86911e+09
3.86956e+09
3.87106e+09
3.87365e+09
3.87708e+09
3.88101e+09
3.88512e+09
3.8881e+09
3.88628e+09
3.87616e+09
3.85372e+09
3.82333e+09
3.00232e+09
3.87057e+09
3.87017e+09
3.86988e+09
3.86985e+09
3.87e+09
3.87107e+09
3.87349e+09
3.87718e+09
3.88178e+09
3.88539e+09
3.88436e+09
3.87523e+09
3.8539e+09
3.82364e+09
3.00239e+09
3.86685e+09
3.86808e+09
3.86884e+09
3.8694e+09
3.86977e+09
3.87043e+09
3.87194e+09
3.8747e+09
3.87867e+09
3.88223e+09
3.88197e+09
3.87383e+09
3.85261e+09
3.82227e+09
3.00194e+09
3.86278e+09
3.86442e+09
3.86573e+09
3.86689e+09
3.86778e+09
3.86858e+09
3.86959e+09
3.87164e+09
3.87502e+09
3.87851e+09
3.87849e+09
3.87065e+09
3.8494e+09
3.82019e+09
3.00143e+09
3.86183e+09
3.86454e+09
3.86629e+09
3.86736e+09
3.86803e+09
3.86865e+09
3.86952e+09
3.87074e+09
3.8731e+09
3.87577e+09
3.87468e+09
3.8633e+09
3.84012e+09
3.81376e+09
2.99981e+09
3.8588e+09
3.86113e+09
3.86328e+09
3.86496e+09
3.86628e+09
3.86737e+09
3.8687e+09
3.87072e+09
3.87299e+09
3.87363e+09
3.86689e+09
3.84894e+09
3.82465e+09
3.49602e+09
2.99687e+09
3.86058e+09
3.86301e+09
3.86585e+09
3.8686e+09
3.87038e+09
3.87116e+09
3.87159e+09
3.87186e+09
3.87209e+09
3.86899e+09
3.85833e+09
3.83995e+09
3.81932e+09
3.11061e+09
2.99632e+09
3.8557e+09
3.85822e+09
3.86132e+09
3.86465e+09
3.86775e+09
3.87025e+09
3.87196e+09
3.87347e+09
3.87523e+09
3.8762e+09
3.8717e+09
3.85679e+09
3.83213e+09
3.76901e+09
2.99726e+09
3.87882e+09
3.87888e+09
3.87895e+09
3.87889e+09
3.87857e+09
3.87791e+09
3.87679e+09
3.87509e+09
3.87225e+09
3.86712e+09
3.85811e+09
3.84483e+09
3.82858e+09
3.81059e+09
3.00033e+09
2.99119e+09
2.99117e+09
2.99115e+09
2.99114e+09
2.99113e+09
2.99112e+09
2.99112e+09
2.99111e+09
2.9911e+09
2.9911e+09
2.9911e+09
2.99109e+09
2.99109e+09
2.99109e+09
2.99108e+09
2.99122e+09
2.99119e+09
2.99117e+09
2.99116e+09
2.99114e+09
2.99113e+09
2.99112e+09
2.99112e+09
2.99111e+09
2.9911e+09
2.9911e+09
2.99109e+09
2.99109e+09
2.99109e+09
2.99108e+09
2.99126e+09
2.99122e+09
2.9912e+09
2.99118e+09
2.99116e+09
2.99115e+09
2.99113e+09
2.99112e+09
2.99112e+09
2.99111e+09
2.9911e+09
2.9911e+09
2.99109e+09
2.99109e+09
2.99108e+09
2.99129e+09
2.99125e+09
2.99122e+09
2.9912e+09
2.99118e+09
2.99116e+09
2.99115e+09
2.99113e+09
2.99112e+09
2.99111e+09
2.99111e+09
2.9911e+09
2.99109e+09
2.99109e+09
2.99108e+09
2.99132e+09
2.99128e+09
2.99125e+09
2.99122e+09
2.9912e+09
2.99118e+09
2.99116e+09
2.99114e+09
2.99113e+09
2.99112e+09
2.99111e+09
2.9911e+09
2.9911e+09
2.99109e+09
2.99109e+09
2.99136e+09
2.99132e+09
2.99128e+09
2.99124e+09
2.99122e+09
2.99119e+09
2.99117e+09
2.99116e+09
2.99114e+09
2.99113e+09
2.99112e+09
2.99111e+09
2.9911e+09
2.99109e+09
2.99109e+09
2.9914e+09
2.99135e+09
2.99131e+09
2.99127e+09
2.99124e+09
2.99121e+09
2.99119e+09
2.99117e+09
2.99115e+09
2.99113e+09
2.99112e+09
2.99111e+09
2.9911e+09
2.99109e+09
2.99109e+09
2.99145e+09
2.99139e+09
2.99134e+09
2.9913e+09
2.99126e+09
2.99123e+09
2.9912e+09
2.99118e+09
2.99116e+09
2.99114e+09
2.99113e+09
2.99112e+09
2.9911e+09
2.99109e+09
2.99109e+09
2.99151e+09
2.99144e+09
2.99138e+09
2.99133e+09
2.99129e+09
2.99125e+09
2.99122e+09
2.9912e+09
2.99117e+09
2.99115e+09
2.99114e+09
2.99112e+09
2.99111e+09
2.9911e+09
2.99109e+09
2.99157e+09
2.9915e+09
2.99143e+09
2.99137e+09
2.99132e+09
2.99128e+09
2.99125e+09
2.99121e+09
2.99119e+09
2.99116e+09
2.99114e+09
2.99113e+09
2.99111e+09
2.9911e+09
2.99109e+09
2.99166e+09
2.99157e+09
2.99149e+09
2.99142e+09
2.99136e+09
2.99132e+09
2.99127e+09
2.99124e+09
2.9912e+09
2.99118e+09
2.99115e+09
2.99113e+09
2.99112e+09
2.9911e+09
2.99109e+09
2.99175e+09
2.99165e+09
2.99156e+09
2.99148e+09
2.99141e+09
2.99136e+09
2.99131e+09
2.99126e+09
2.99123e+09
2.99119e+09
2.99117e+09
2.99114e+09
2.99112e+09
2.9911e+09
2.99109e+09
2.99187e+09
2.99175e+09
2.99165e+09
2.99155e+09
2.99147e+09
2.99141e+09
2.99135e+09
2.9913e+09
2.99125e+09
2.99121e+09
2.99118e+09
2.99115e+09
2.99113e+09
2.99111e+09
2.99109e+09
2.99202e+09
2.99188e+09
2.99175e+09
2.99164e+09
2.99155e+09
2.99147e+09
2.9914e+09
2.99134e+09
2.99129e+09
2.99124e+09
2.9912e+09
2.99117e+09
2.99114e+09
2.99111e+09
2.99109e+09
2.99221e+09
2.99204e+09
2.99189e+09
2.99176e+09
2.99164e+09
2.99155e+09
2.99146e+09
2.99139e+09
2.99133e+09
2.99127e+09
2.99123e+09
2.99119e+09
2.99115e+09
2.99112e+09
2.99109e+09
2.99244e+09
2.99224e+09
2.99206e+09
2.9919e+09
2.99176e+09
2.99165e+09
2.99154e+09
2.99146e+09
2.99138e+09
2.99131e+09
2.99126e+09
2.99121e+09
2.99117e+09
2.99113e+09
2.9911e+09
2.99274e+09
2.99249e+09
2.99227e+09
2.99208e+09
2.99192e+09
2.99177e+09
2.99165e+09
2.99154e+09
2.99145e+09
2.99137e+09
2.9913e+09
2.99124e+09
2.99118e+09
2.99114e+09
2.9911e+09
2.99312e+09
2.99282e+09
2.99256e+09
2.99233e+09
2.99212e+09
2.99194e+09
2.99179e+09
2.99165e+09
2.99154e+09
2.99144e+09
2.99135e+09
2.99127e+09
2.99121e+09
2.99115e+09
2.99111e+09
2.99362e+09
2.99326e+09
2.99294e+09
2.99265e+09
2.9924e+09
2.99217e+09
2.99198e+09
2.99181e+09
2.99166e+09
2.99153e+09
2.99142e+09
2.99133e+09
2.99124e+09
2.99117e+09
2.99111e+09
2.9943e+09
2.99386e+09
2.99346e+09
2.9931e+09
2.99278e+09
2.99249e+09
2.99224e+09
2.99202e+09
2.99183e+09
2.99167e+09
2.99152e+09
2.9914e+09
2.99129e+09
2.9912e+09
2.99112e+09
2.99522e+09
2.99469e+09
2.99419e+09
2.99374e+09
2.99332e+09
2.99295e+09
2.99263e+09
2.99234e+09
2.99208e+09
2.99186e+09
2.99167e+09
2.99151e+09
2.99136e+09
2.99124e+09
2.99113e+09
2.9965e+09
2.99586e+09
2.99525e+09
2.99468e+09
2.99414e+09
2.99365e+09
2.99321e+09
2.99282e+09
2.99248e+09
2.99217e+09
2.99191e+09
2.99168e+09
2.99148e+09
2.9913e+09
2.99115e+09
2.99829e+09
2.99757e+09
2.99684e+09
2.99613e+09
2.99543e+09
2.99478e+09
2.99418e+09
2.99362e+09
2.99313e+09
2.99269e+09
2.9923e+09
2.99196e+09
2.99166e+09
2.99141e+09
2.99119e+09
3.00078e+09
3.00005e+09
2.99926e+09
2.99844e+09
2.99758e+09
2.99673e+09
2.99589e+09
2.99509e+09
2.99434e+09
2.99366e+09
2.99305e+09
2.9925e+09
2.99203e+09
2.99161e+09
2.99125e+09
3.00416e+09
3.00359e+09
3.00294e+09
3.00219e+09
3.00134e+09
3.00039e+09
2.99935e+09
2.99824e+09
2.99706e+09
2.99588e+09
2.99478e+09
2.99377e+09
2.99287e+09
2.99208e+09
2.9914e+09
3.27578e+09
3.24805e+09
3.21e+09
3.16916e+09
3.13423e+09
3.08952e+09
3.04179e+09
3.00865e+09
3.00548e+09
3.00286e+09
3.00002e+09
2.99752e+09
2.99535e+09
2.99347e+09
2.99184e+09
3.89353e+09
3.89507e+09
3.8894e+09
3.86843e+09
3.86743e+09
3.86871e+09
3.86345e+09
3.85749e+09
3.84801e+09
3.83074e+09
3.37994e+09
3.00469e+09
3.00044e+09
2.99642e+09
2.99278e+09
3.89215e+09
3.89267e+09
3.8933e+09
3.89163e+09
3.89003e+09
3.88921e+09
3.89079e+09
3.89294e+09
3.89292e+09
3.89215e+09
3.88374e+09
3.86322e+09
3.83854e+09
3.81333e+09
2.99978e+09
3.87933e+09
3.88258e+09
3.88665e+09
3.88935e+09
3.89002e+09
3.89018e+09
3.89087e+09
3.89198e+09
3.8928e+09
3.89252e+09
3.8882e+09
3.87508e+09
3.85077e+09
3.82098e+09
3.00171e+09
3.87374e+09
3.87586e+09
3.87978e+09
3.88392e+09
3.88656e+09
3.88816e+09
3.88959e+09
3.89101e+09
3.89243e+09
3.89223e+09
3.8879e+09
3.87536e+09
3.85207e+09
3.82208e+09
3.00199e+09
3.86979e+09
3.87153e+09
3.87384e+09
3.87715e+09
3.88031e+09
3.88306e+09
3.88567e+09
3.88816e+09
3.89041e+09
3.89047e+09
3.886e+09
3.87364e+09
3.85084e+09
3.8216e+09
3.00191e+09
3.86638e+09
3.86765e+09
3.86929e+09
3.87126e+09
3.8738e+09
3.87697e+09
3.88066e+09
3.88478e+09
3.88816e+09
3.88846e+09
3.8841e+09
3.87229e+09
3.85028e+09
3.82143e+09
3.00188e+09
3.86784e+09
3.86703e+09
3.86702e+09
3.86781e+09
3.86916e+09
3.87135e+09
3.87465e+09
3.87915e+09
3.88363e+09
3.88541e+09
3.8825e+09
3.87218e+09
3.85049e+09
3.82126e+09
3.00177e+09
3.86757e+09
3.86734e+09
3.86713e+09
3.86713e+09
3.86756e+09
3.86879e+09
3.87129e+09
3.8754e+09
3.87971e+09
3.88189e+09
3.87982e+09
3.86942e+09
3.8468e+09
3.81809e+09
3.00086e+09
3.86376e+09
3.86507e+09
3.86553e+09
3.86572e+09
3.86593e+09
3.8666e+09
3.86813e+09
3.87075e+09
3.87511e+09
3.87814e+09
3.87707e+09
3.86699e+09
3.84502e+09
3.81751e+09
3.00078e+09
3.8608e+09
3.86327e+09
3.86535e+09
3.86646e+09
3.86696e+09
3.86746e+09
3.86867e+09
3.87085e+09
3.87333e+09
3.87491e+09
3.87097e+09
3.8564e+09
3.83271e+09
3.80836e+09
2.99831e+09
3.85819e+09
3.85917e+09
3.86101e+09
3.86326e+09
3.86519e+09
3.86662e+09
3.86834e+09
3.8709e+09
3.87306e+09
3.87257e+09
3.86394e+09
3.84528e+09
3.82239e+09
3.4987e+09
2.99687e+09
3.86047e+09
3.86299e+09
3.86579e+09
3.86863e+09
3.87054e+09
3.87124e+09
3.87118e+09
3.87156e+09
3.87169e+09
3.86843e+09
3.85788e+09
3.83991e+09
3.81942e+09
3.10147e+09
2.99631e+09
3.8566e+09
3.85952e+09
3.86281e+09
3.86597e+09
3.86886e+09
3.871e+09
3.87258e+09
3.87373e+09
3.87519e+09
3.87558e+09
3.86943e+09
3.85278e+09
3.82876e+09
3.7209e+09
2.99719e+09
3.8793e+09
3.87939e+09
3.8794e+09
3.87916e+09
3.87869e+09
3.87784e+09
3.87659e+09
3.8747e+09
3.87159e+09
3.86599e+09
3.85646e+09
3.84313e+09
3.82749e+09
3.81025e+09
3.00025e+09
2.99123e+09
2.9912e+09
2.99118e+09
2.99116e+09
2.99115e+09
2.99114e+09
2.99113e+09
2.99112e+09
2.99111e+09
2.99111e+09
2.9911e+09
2.99109e+09
2.99109e+09
2.99109e+09
2.99108e+09
2.99125e+09
2.99122e+09
2.99119e+09
2.99117e+09
2.99116e+09
2.99114e+09
2.99113e+09
2.99112e+09
2.99111e+09
2.99111e+09
2.9911e+09
2.9911e+09
2.99109e+09
2.99109e+09
2.99108e+09
2.99127e+09
2.99124e+09
2.99121e+09
2.99119e+09
2.99117e+09
2.99115e+09
2.99114e+09
2.99113e+09
2.99112e+09
2.99111e+09
2.9911e+09
2.9911e+09
2.99109e+09
2.99109e+09
2.99108e+09
2.9913e+09
2.99126e+09
2.99123e+09
2.99121e+09
2.99118e+09
2.99117e+09
2.99115e+09
2.99114e+09
2.99113e+09
2.99112e+09
2.99111e+09
2.9911e+09
2.99109e+09
2.99109e+09
2.99108e+09
2.99133e+09
2.99129e+09
2.99125e+09
2.99122e+09