/*--------------------------------*- C++ -*----------------------------------*\
  =========                 |
  \\      /  F ield         | OpenFOAM: The Open Source CFD Toolbox
   \\    /   O peration     | Website:  https://openfoam.org
    \\  /    A nd           | Version:  6
     \\/     M anipulation  |
\*---------------------------------------------------------------------------*/
FoamFile
{
    version     2.0;
    format      ascii;
    class       volScalarField;
    location    "10000";
    object      H;
}
// * * * * * * * * * * * * * * * * * * * * * * * * * * * * * * * * * * * * * //

dimensions      [1 -1 -2 0 0 0 0];

internalField   nonuniform List<scalar> 
120400
(
2.99124e+09
2.99122e+09
2.99119e+09
2.99118e+09
2.99116e+09
2.99115e+09
2.99114e+09
2.99113e+09
2.99112e+09
2.99111e+09
2.9911e+09
2.9911e+09
2.99109e+09
2.99109e+09
2.99108e+09
2.99124e+09
2.99122e+09
2.9912e+09
2.99118e+09
2.99116e+09
2.99115e+09
2.99114e+09
2.99113e+09
2.99112e+09
2.99111e+09
2.9911e+09
2.9911e+09
2.99109e+09
2.99109e+09
2.99108e+09
2.99125e+09
2.99123e+09
2.9912e+09
2.99118e+09
2.99117e+09
2.99115e+09
2.99114e+09
2.99113e+09
2.99112e+09
2.99111e+09
2.9911e+09
2.9911e+09
2.99109e+09
2.99109e+09
2.99108e+09
2.99126e+09
2.99124e+09
2.99121e+09
2.99119e+09
2.99117e+09
2.99116e+09
2.99114e+09
2.99113e+09
2.99112e+09
2.99111e+09
2.99111e+09
2.9911e+09
2.99109e+09
2.99109e+09
2.99108e+09
2.99128e+09
2.99125e+09
2.99122e+09
2.9912e+09
2.99118e+09
2.99116e+09
2.99115e+09
2.99114e+09
2.99113e+09
2.99112e+09
2.99111e+09
2.9911e+09
2.99109e+09
2.99109e+09
2.99108e+09
2.9913e+09
2.99127e+09
2.99124e+09
2.99121e+09
2.99119e+09
2.99117e+09
2.99116e+09
2.99114e+09
2.99113e+09
2.99112e+09
2.99111e+09
2.9911e+09
2.9911e+09
2.99109e+09
2.99108e+09
2.99133e+09
2.99129e+09
2.99126e+09
2.99123e+09
2.99121e+09
2.99118e+09
2.99117e+09
2.99115e+09
2.99114e+09
2.99112e+09
2.99111e+09
2.99111e+09
2.9911e+09
2.99109e+09
2.99109e+09
2.99136e+09
2.99132e+09
2.99128e+09
2.99125e+09
2.99122e+09
2.9912e+09
2.99118e+09
2.99116e+09
2.99114e+09
2.99113e+09
2.99112e+09
2.99111e+09
2.9911e+09
2.99109e+09
2.99109e+09
2.9914e+09
2.99136e+09
2.99131e+09
2.99128e+09
2.99124e+09
2.99122e+09
2.99119e+09
2.99117e+09
2.99115e+09
2.99114e+09
2.99112e+09
2.99111e+09
2.9911e+09
2.99109e+09
2.99109e+09
2.99145e+09
2.9914e+09
2.99135e+09
2.9913e+09
2.99127e+09
2.99124e+09
2.99121e+09
2.99118e+09
2.99116e+09
2.99115e+09
2.99113e+09
2.99112e+09
2.99111e+09
2.9911e+09
2.99109e+09
2.99151e+09
2.99144e+09
2.99139e+09
2.99134e+09
2.9913e+09
2.99126e+09
2.99123e+09
2.9912e+09
2.99118e+09
2.99116e+09
2.99114e+09
2.99112e+09
2.99111e+09
2.9911e+09
2.99109e+09
2.99158e+09
2.9915e+09
2.99144e+09
2.99138e+09
2.99133e+09
2.99129e+09
2.99125e+09
2.99122e+09
2.99119e+09
2.99117e+09
2.99115e+09
2.99113e+09
2.99111e+09
2.9911e+09
2.99109e+09
2.99165e+09
2.99157e+09
2.99149e+09
2.99143e+09
2.99137e+09
2.99132e+09
2.99128e+09
2.99124e+09
2.99121e+09
2.99118e+09
2.99116e+09
2.99114e+09
2.99112e+09
2.9911e+09
2.99109e+09
2.99175e+09
2.99165e+09
2.99156e+09
2.99148e+09
2.99141e+09
2.99136e+09
2.99131e+09
2.99126e+09
2.99123e+09
2.9912e+09
2.99117e+09
2.99114e+09
2.99112e+09
2.99111e+09
2.99109e+09
2.99185e+09
2.99174e+09
2.99163e+09
2.99155e+09
2.99147e+09
2.9914e+09
2.99134e+09
2.99129e+09
2.99125e+09
2.99121e+09
2.99118e+09
2.99115e+09
2.99113e+09
2.99111e+09
2.99109e+09
2.99198e+09
2.99184e+09
2.99173e+09
2.99162e+09
2.99153e+09
2.99145e+09
2.99139e+09
2.99133e+09
2.99128e+09
2.99124e+09
2.9912e+09
2.99117e+09
2.99114e+09
2.99111e+09
2.99109e+09
2.99213e+09
2.99197e+09
2.99183e+09
2.99171e+09
2.99161e+09
2.99152e+09
2.99144e+09
2.99137e+09
2.99131e+09
2.99126e+09
2.99122e+09
2.99118e+09
2.99115e+09
2.99112e+09
2.99109e+09
2.9923e+09
2.99212e+09
2.99196e+09
2.99182e+09
2.9917e+09
2.99159e+09
2.9915e+09
2.99142e+09
2.99135e+09
2.99129e+09
2.99124e+09
2.9912e+09
2.99116e+09
2.99112e+09
2.9911e+09
2.99251e+09
2.99229e+09
2.99211e+09
2.99194e+09
2.9918e+09
2.99168e+09
2.99157e+09
2.99148e+09
2.9914e+09
2.99133e+09
2.99127e+09
2.99122e+09
2.99117e+09
2.99113e+09
2.9911e+09
2.99275e+09
2.9925e+09
2.99228e+09
2.99209e+09
2.99193e+09
2.99178e+09
2.99165e+09
2.99155e+09
2.99145e+09
2.99137e+09
2.9913e+09
2.99124e+09
2.99119e+09
2.99114e+09
2.9911e+09
2.99304e+09
2.99275e+09
2.9925e+09
2.99227e+09
2.99207e+09
2.9919e+09
2.99176e+09
2.99163e+09
2.99152e+09
2.99142e+09
2.99134e+09
2.99127e+09
2.9912e+09
2.99115e+09
2.9911e+09
2.99339e+09
2.99305e+09
2.99275e+09
2.99249e+09
2.99225e+09
2.99205e+09
2.99188e+09
2.99173e+09
2.9916e+09
2.99148e+09
2.99139e+09
2.9913e+09
2.99123e+09
2.99116e+09
2.99111e+09
2.99381e+09
2.99341e+09
2.99306e+09
2.99275e+09
2.99247e+09
2.99224e+09
2.99203e+09
2.99185e+09
2.99169e+09
2.99156e+09
2.99144e+09
2.99134e+09
2.99125e+09
2.99118e+09
2.99111e+09
2.99431e+09
2.99385e+09
2.99343e+09
2.99307e+09
2.99274e+09
2.99246e+09
2.99221e+09
2.992e+09
2.99181e+09
2.99165e+09
2.99151e+09
2.99139e+09
2.99129e+09
2.9912e+09
2.99112e+09
2.99494e+09
2.99439e+09
2.9939e+09
2.99346e+09
2.99308e+09
2.99274e+09
2.99244e+09
2.99218e+09
2.99196e+09
2.99177e+09
2.9916e+09
2.99146e+09
2.99133e+09
2.99122e+09
2.99113e+09
2.99571e+09
2.99507e+09
2.99448e+09
2.99396e+09
2.9935e+09
2.99309e+09
2.99273e+09
2.99242e+09
2.99215e+09
2.99192e+09
2.99171e+09
2.99154e+09
2.99138e+09
2.99125e+09
2.99114e+09
2.99668e+09
2.99593e+09
2.99523e+09
2.9946e+09
2.99404e+09
2.99354e+09
2.9931e+09
2.99272e+09
2.99239e+09
2.99211e+09
2.99186e+09
2.99164e+09
2.99145e+09
2.99129e+09
2.99115e+09
2.99792e+09
2.99703e+09
2.99619e+09
2.99543e+09
2.99474e+09
2.99413e+09
2.9936e+09
2.99313e+09
2.99271e+09
2.99236e+09
2.99205e+09
2.99178e+09
2.99154e+09
2.99134e+09
2.99116e+09
2.99953e+09
2.99847e+09
2.99747e+09
2.99654e+09
2.99569e+09
2.99493e+09
2.99426e+09
2.99367e+09
2.99315e+09
2.9927e+09
2.9923e+09
2.99196e+09
2.99167e+09
2.99141e+09
2.99119e+09
3.00164e+09
3.00042e+09
2.99921e+09
2.99806e+09
2.997e+09
2.99604e+09
2.99519e+09
2.99443e+09
2.99376e+09
2.99317e+09
2.99267e+09
2.99222e+09
2.99184e+09
2.99151e+09
2.99122e+09
3.00444e+09
3.0031e+09
3.00165e+09
3.00022e+09
2.99887e+09
2.99763e+09
2.99652e+09
2.99552e+09
2.99464e+09
2.99387e+09
2.99319e+09
2.9926e+09
2.99209e+09
2.99165e+09
2.99126e+09
3.17428e+09
3.0072e+09
3.00524e+09
3.00335e+09
3.00161e+09
2.99999e+09
2.9985e+09
2.99716e+09
2.99596e+09
2.99491e+09
2.99398e+09
2.99317e+09
2.99247e+09
2.99186e+09
2.99133e+09
3.81912e+09
3.81155e+09
3.66048e+09
3.08818e+09
3.00572e+09
3.00361e+09
3.0016e+09
2.99974e+09
2.99806e+09
2.99656e+09
2.99524e+09
2.99408e+09
2.99307e+09
2.9922e+09
2.99144e+09
3.84225e+09
3.83282e+09
3.82404e+09
3.81634e+09
3.80935e+09
3.62348e+09
3.00699e+09
3.00419e+09
3.00164e+09
2.99937e+09
2.99738e+09
2.99562e+09
2.9941e+09
2.99277e+09
2.99162e+09
3.86918e+09
3.8575e+09
3.84645e+09
3.83626e+09
3.82704e+09
3.81882e+09
3.81161e+09
3.80526e+09
3.06973e+09
3.00391e+09
3.0008e+09
2.99809e+09
2.99573e+09
2.99368e+09
2.99191e+09
3.90128e+09
3.88718e+09
3.8734e+09
3.8603e+09
3.84811e+09
3.83698e+09
3.82694e+09
3.81799e+09
3.81007e+09
3.68078e+09
3.00558e+09
3.00154e+09
2.99802e+09
2.99496e+09
2.99231e+09
3.94083e+09
3.92465e+09
3.90819e+09
3.89193e+09
3.87629e+09
3.86158e+09
3.848e+09
3.83568e+09
3.82463e+09
3.81482e+09
3.80619e+09
3.00665e+09
3.00142e+09
2.99687e+09
2.99292e+09
3.99066e+09
3.97379e+09
3.95565e+09
3.93675e+09
3.91761e+09
3.89873e+09
3.88056e+09
3.86346e+09
3.84767e+09
3.83332e+09
3.82045e+09
3.80904e+09
3.00694e+09
2.99997e+09
2.9939e+09
4.05343e+09
4.03913e+09
4.0226e+09
4.00396e+09
3.98348e+09
3.9616e+09
3.93883e+09
3.91577e+09
3.89303e+09
3.87114e+09
3.85053e+09
3.83152e+09
3.81429e+09
3.00686e+09
2.9961e+09
4.12936e+09
4.1231e+09
4.11512e+09
4.10498e+09
4.09221e+09
4.07636e+09
4.05705e+09
4.03412e+09
4.00759e+09
3.97772e+09
3.94497e+09
3.90998e+09
3.87345e+09
3.83613e+09
3.00673e+09
2.99124e+09
2.99122e+09
2.99119e+09
2.99118e+09
2.99116e+09
2.99115e+09
2.99114e+09
2.99112e+09
2.99112e+09
2.99111e+09
2.9911e+09
2.9911e+09
2.99109e+09
2.99109e+09
2.99108e+09
2.99124e+09
2.99122e+09
2.9912e+09
2.99118e+09
2.99116e+09
2.99115e+09
2.99114e+09
2.99113e+09
2.99112e+09
2.99111e+09
2.9911e+09
2.9911e+09
2.99109e+09
2.99109e+09
2.99108e+09
2.99125e+09
2.99123e+09
2.9912e+09
2.99118e+09
2.99117e+09
2.99115e+09
2.99114e+09
2.99113e+09
2.99112e+09
2.99111e+09
2.9911e+09
2.9911e+09
2.99109e+09
2.99109e+09
2.99108e+09
2.99126e+09
2.99124e+09
2.99121e+09
2.99119e+09
2.99117e+09
2.99116e+09
2.99114e+09
2.99113e+09
2.99112e+09
2.99111e+09
2.99111e+09
2.9911e+09
2.99109e+09
2.99109e+09
2.99108e+09
2.99128e+09
2.99125e+09
2.99122e+09
2.9912e+09
2.99118e+09
2.99116e+09
2.99115e+09
2.99114e+09
2.99113e+09
2.99112e+09
2.99111e+09
2.9911e+09
2.99109e+09
2.99109e+09
2.99108e+09
2.9913e+09
2.99127e+09
2.99124e+09
2.99121e+09
2.99119e+09
2.99117e+09
2.99116e+09
2.99114e+09
2.99113e+09
2.99112e+09
2.99111e+09
2.9911e+09
2.9911e+09
2.99109e+09
2.99108e+09
2.99133e+09
2.99129e+09
2.99126e+09
2.99123e+09
2.99121e+09
2.99118e+09
2.99117e+09
2.99115e+09
2.99114e+09
2.99112e+09
2.99111e+09
2.99111e+09
2.9911e+09
2.99109e+09
2.99109e+09
2.99136e+09
2.99132e+09
2.99128e+09
2.99125e+09
2.99122e+09
2.9912e+09
2.99118e+09
2.99116e+09
2.99114e+09
2.99113e+09
2.99112e+09
2.99111e+09
2.9911e+09
2.99109e+09
2.99109e+09
2.9914e+09
2.99135e+09
2.99131e+09
2.99127e+09
2.99124e+09
2.99121e+09
2.99119e+09
2.99117e+09
2.99115e+09
2.99114e+09
2.99112e+09
2.99111e+09
2.9911e+09
2.99109e+09
2.99109e+09
2.99145e+09
2.9914e+09
2.99135e+09
2.9913e+09
2.99127e+09
2.99123e+09
2.99121e+09
2.99118e+09
2.99116e+09
2.99114e+09
2.99113e+09
2.99112e+09
2.9911e+09
2.99109e+09
2.99109e+09
2.99151e+09
2.99144e+09
2.99139e+09
2.99134e+09
2.99129e+09
2.99126e+09
2.99123e+09
2.9912e+09
2.99117e+09
2.99115e+09
2.99114e+09
2.99112e+09
2.99111e+09
2.9911e+09
2.99109e+09
2.99158e+09
2.9915e+09
2.99143e+09
2.99138e+09
2.99133e+09
2.99128e+09
2.99125e+09
2.99122e+09
2.99119e+09
2.99117e+09
2.99114e+09
2.99113e+09
2.99111e+09
2.9911e+09
2.99109e+09
2.99165e+09
2.99157e+09
2.99149e+09
2.99142e+09
2.99137e+09
2.99132e+09
2.99127e+09
2.99124e+09
2.99121e+09
2.99118e+09
2.99115e+09
2.99113e+09
2.99112e+09
2.9911e+09
2.99109e+09
2.99175e+09
2.99164e+09
2.99156e+09
2.99148e+09
2.99141e+09
2.99135e+09
2.99131e+09
2.99126e+09
2.99123e+09
2.99119e+09
2.99117e+09
2.99114e+09
2.99112e+09
2.9911e+09
2.99109e+09
2.99185e+09
2.99174e+09
2.99163e+09
2.99154e+09
2.99147e+09
2.9914e+09
2.99134e+09
2.99129e+09
2.99125e+09
2.99121e+09
2.99118e+09
2.99115e+09
2.99113e+09
2.99111e+09
2.99109e+09
2.99198e+09
2.99184e+09
2.99172e+09
2.99162e+09
2.99153e+09
2.99145e+09
2.99138e+09
2.99133e+09
2.99128e+09
2.99123e+09
2.9912e+09
2.99116e+09
2.99114e+09
2.99111e+09
2.99109e+09
2.99213e+09
2.99197e+09
2.99183e+09
2.99171e+09
2.9916e+09
2.99151e+09
2.99143e+09
2.99137e+09
2.99131e+09
2.99126e+09
2.99122e+09
2.99118e+09
2.99115e+09
2.99112e+09
2.99109e+09
2.9923e+09
2.99212e+09
2.99195e+09
2.99181e+09
2.99169e+09
2.99159e+09
2.99149e+09
2.99142e+09
2.99135e+09
2.99129e+09
2.99124e+09
2.99119e+09
2.99116e+09
2.99112e+09
2.9911e+09
2.99251e+09
2.99229e+09
2.9921e+09
2.99194e+09
2.9918e+09
2.99167e+09
2.99156e+09
2.99147e+09
2.99139e+09
2.99132e+09
2.99126e+09
2.99121e+09
2.99117e+09
2.99113e+09
2.9911e+09
2.99275e+09
2.9925e+09
2.99228e+09
2.99209e+09
2.99192e+09
2.99177e+09
2.99165e+09
2.99154e+09
2.99145e+09
2.99137e+09
2.9913e+09
2.99124e+09
2.99118e+09
2.99114e+09
2.9911e+09
2.99304e+09
2.99275e+09
2.99249e+09
2.99226e+09
2.99207e+09
2.9919e+09
2.99175e+09
2.99162e+09
2.99151e+09
2.99142e+09
2.99133e+09
2.99126e+09
2.9912e+09
2.99115e+09
2.9911e+09
2.99339e+09
2.99304e+09
2.99274e+09
2.99248e+09
2.99225e+09
2.99204e+09
2.99187e+09
2.99172e+09
2.99159e+09
2.99148e+09
2.99138e+09
2.9913e+09
2.99122e+09
2.99116e+09
2.99111e+09
2.99381e+09
2.9934e+09
2.99305e+09
2.99274e+09
2.99246e+09
2.99223e+09
2.99202e+09
2.99184e+09
2.99169e+09
2.99155e+09
2.99144e+09
2.99134e+09
2.99125e+09
2.99118e+09
2.99111e+09
2.99431e+09
2.99384e+09
2.99342e+09
2.99305e+09
2.99273e+09
2.99245e+09
2.9922e+09
2.99199e+09
2.9918e+09
2.99164e+09
2.99151e+09
2.99139e+09
2.99128e+09
2.9912e+09
2.99112e+09
2.99494e+09
2.99438e+09
2.99389e+09
2.99345e+09
2.99306e+09
2.99272e+09
2.99243e+09
2.99217e+09
2.99195e+09
2.99176e+09
2.99159e+09
2.99145e+09
2.99133e+09
2.99122e+09
2.99113e+09
2.99571e+09
2.99506e+09
2.99447e+09
2.99394e+09
2.99348e+09
2.99307e+09
2.99271e+09
2.99241e+09
2.99214e+09
2.9919e+09
2.9917e+09
2.99153e+09
2.99138e+09
2.99125e+09
2.99113e+09
2.99668e+09
2.99591e+09
2.99521e+09
2.99458e+09
2.99401e+09
2.99352e+09
2.99308e+09
2.99271e+09
2.99238e+09
2.99209e+09
2.99184e+09
2.99163e+09
2.99145e+09
2.99128e+09
2.99115e+09
2.99792e+09
2.99701e+09
2.99617e+09
2.9954e+09
2.99472e+09
2.99411e+09
2.99357e+09
2.9931e+09
2.99269e+09
2.99234e+09
2.99203e+09
2.99177e+09
2.99153e+09
2.99133e+09
2.99116e+09
2.99952e+09
2.99845e+09
2.99744e+09
2.99651e+09
2.99566e+09
2.9949e+09
2.99423e+09
2.99364e+09
2.99312e+09
2.99268e+09
2.99229e+09
2.99195e+09
2.99166e+09
2.9914e+09
2.99118e+09
3.00162e+09
3.00039e+09
2.99917e+09
2.99802e+09
2.99696e+09
2.996e+09
2.99515e+09
2.99439e+09
2.99373e+09
2.99315e+09
2.99264e+09
2.9922e+09
2.99183e+09
2.9915e+09
2.99121e+09
3.00441e+09
3.00307e+09
3.0016e+09
3.00017e+09
2.99882e+09
2.99758e+09
2.99647e+09
2.99547e+09
2.9946e+09
2.99383e+09
2.99316e+09
2.99258e+09
2.99207e+09
2.99164e+09
2.99126e+09
3.17375e+09
3.00715e+09
3.00518e+09
3.00329e+09
3.00155e+09
2.99992e+09
2.99843e+09
2.99709e+09
2.9959e+09
2.99486e+09
2.99394e+09
2.99314e+09
2.99245e+09
2.99184e+09
2.99132e+09
3.8191e+09
3.81146e+09
3.64678e+09
3.07865e+09
3.00564e+09
3.00352e+09
3.00151e+09
2.99965e+09
2.99798e+09
2.99649e+09
2.99518e+09
2.99404e+09
2.99304e+09
2.99218e+09
2.99143e+09
3.84222e+09
3.83266e+09
3.82383e+09
3.81612e+09
3.80912e+09
3.58541e+09
3.00684e+09
3.00405e+09
3.00152e+09
2.99927e+09
2.99729e+09
2.99555e+09
2.99405e+09
2.99274e+09
2.99161e+09
3.86912e+09
3.85728e+09
3.84615e+09
3.83593e+09
3.8267e+09
3.81849e+09
3.81132e+09
3.80502e+09
3.03927e+09
3.00378e+09
3.00069e+09
2.998e+09
2.99566e+09
2.99364e+09
2.99189e+09
3.90118e+09
3.88688e+09
3.873e+09
3.85984e+09
3.84764e+09
3.8365e+09
3.82649e+09
3.81757e+09
3.8097e+09
3.62312e+09
3.00537e+09
3.00137e+09
2.9979e+09
2.99489e+09
2.99229e+09
3.94068e+09
3.92428e+09
3.90769e+09
3.89135e+09
3.87567e+09
3.86096e+09
3.8474e+09
3.83511e+09
3.82411e+09
3.81437e+09
3.80582e+09
3.00642e+09
3.00125e+09
2.99677e+09
2.99288e+09
3.99046e+09
3.97337e+09
3.95508e+09
3.93607e+09
3.91686e+09
3.89795e+09
3.87979e+09
3.86272e+09
3.84698e+09
3.83271e+09
3.81994e+09
3.80863e+09
3.00671e+09
2.99983e+09
2.99385e+09
4.05324e+09
4.03875e+09
4.02206e+09
4.00329e+09
3.98271e+09
3.96074e+09
3.93792e+09
3.91486e+09
3.89215e+09
3.87033e+09
3.84983e+09
3.83094e+09
3.81386e+09
3.00666e+09
2.99603e+09
4.12927e+09
4.12292e+09
4.11485e+09
4.10462e+09
4.09175e+09
4.07579e+09
4.05638e+09
4.03336e+09
4.00677e+09
3.97688e+09
3.94417e+09
3.90925e+09
3.87286e+09
3.83574e+09
3.00661e+09
2.99124e+09
2.99122e+09
2.99119e+09
2.99118e+09
2.99116e+09
2.99115e+09
2.99113e+09
2.99112e+09
2.99112e+09
2.99111e+09
2.9911e+09
2.9911e+09
2.99109e+09
2.99109e+09
2.99108e+09
2.99124e+09
2.99122e+09
2.9912e+09
2.99118e+09
2.99116e+09
2.99115e+09
2.99114e+09
2.99113e+09
2.99112e+09
2.99111e+09
2.9911e+09
2.9911e+09
2.99109e+09
2.99109e+09
2.99108e+09
2.99125e+09
2.99123e+09
2.9912e+09
2.99118e+09
2.99117e+09
2.99115e+09
2.99114e+09
2.99113e+09
2.99112e+09
2.99111e+09
2.9911e+09
2.9911e+09
2.99109e+09
2.99109e+09
2.99108e+09
2.99126e+09
2.99124e+09
2.99121e+09
2.99119e+09
2.99117e+09
2.99116e+09
2.99114e+09
2.99113e+09
2.99112e+09
2.99111e+09
2.99111e+09
2.9911e+09
2.99109e+09
2.99109e+09
2.99108e+09
2.99128e+09
2.99125e+09
2.99122e+09
2.9912e+09
2.99118e+09
2.99116e+09
2.99115e+09
2.99114e+09
2.99112e+09
2.99112e+09
2.99111e+09
2.9911e+09
2.99109e+09
2.99109e+09
2.99108e+09
2.9913e+09
2.99127e+09
2.99124e+09
2.99121e+09
2.99119e+09
2.99117e+09
2.99116e+09
2.99114e+09
2.99113e+09
2.99112e+09
2.99111e+09
2.9911e+09
2.9911e+09
2.99109e+09
2.99108e+09
2.99133e+09
2.99129e+09
2.99126e+09
2.99123e+09
2.9912e+09
2.99118e+09
2.99117e+09
2.99115e+09
2.99114e+09
2.99112e+09
2.99111e+09
2.9911e+09
2.9911e+09
2.99109e+09
2.99109e+09
2.99137e+09
2.99132e+09
2.99128e+09
2.99125e+09
2.99122e+09
2.9912e+09
2.99118e+09
2.99116e+09
2.99114e+09
2.99113e+09
2.99112e+09
2.99111e+09
2.9911e+09
2.99109e+09
2.99109e+09
2.99141e+09
2.99135e+09
2.99131e+09
2.99127e+09
2.99124e+09
2.99121e+09
2.99119e+09
2.99117e+09
2.99115e+09
2.99114e+09
2.99112e+09
2.99111e+09
2.9911e+09
2.99109e+09
2.99109e+09
2.99145e+09
2.9914e+09
2.99135e+09
2.9913e+09
2.99127e+09
2.99123e+09
2.99121e+09
2.99118e+09
2.99116e+09
2.99114e+09
2.99113e+09
2.99112e+09
2.9911e+09
2.99109e+09
2.99109e+09
2.99151e+09
2.99144e+09
2.99139e+09
2.99134e+09
2.99129e+09
2.99126e+09
2.99122e+09
2.9912e+09
2.99117e+09
2.99115e+09
2.99114e+09
2.99112e+09
2.99111e+09
2.9911e+09
2.99109e+09
2.99158e+09
2.9915e+09
2.99143e+09
2.99138e+09
2.99133e+09
2.99128e+09
2.99125e+09
2.99122e+09
2.99119e+09
2.99116e+09
2.99114e+09
2.99113e+09
2.99111e+09
2.9911e+09
2.99109e+09
2.99166e+09
2.99157e+09
2.99149e+09
2.99142e+09
2.99136e+09
2.99132e+09
2.99127e+09
2.99124e+09
2.9912e+09
2.99118e+09
2.99115e+09
2.99113e+09
2.99112e+09
2.9911e+09
2.99109e+09
2.99175e+09
2.99164e+09
2.99155e+09
2.99148e+09
2.99141e+09
2.99135e+09
2.9913e+09
2.99126e+09
2.99122e+09
2.99119e+09
2.99117e+09
2.99114e+09
2.99112e+09
2.9911e+09
2.99109e+09
2.99186e+09
2.99173e+09
2.99163e+09
2.99154e+09
2.99146e+09
2.9914e+09
2.99134e+09
2.99129e+09
2.99125e+09
2.99121e+09
2.99118e+09
2.99115e+09
2.99113e+09
2.99111e+09
2.99109e+09
2.99198e+09
2.99184e+09
2.99172e+09
2.99162e+09
2.99153e+09
2.99145e+09
2.99138e+09
2.99132e+09
2.99128e+09
2.99123e+09
2.9912e+09
2.99116e+09
2.99114e+09
2.99111e+09
2.99109e+09
2.99213e+09
2.99197e+09
2.99183e+09
2.99171e+09
2.9916e+09
2.99151e+09
2.99143e+09
2.99137e+09
2.99131e+09
2.99126e+09
2.99121e+09
2.99118e+09
2.99115e+09
2.99112e+09
2.99109e+09
2.9923e+09
2.99212e+09
2.99195e+09
2.99181e+09
2.99169e+09
2.99158e+09
2.99149e+09
2.99141e+09
2.99135e+09
2.99129e+09
2.99124e+09
2.99119e+09
2.99116e+09
2.99112e+09
2.9911e+09
2.99251e+09
2.99229e+09
2.9921e+09
2.99193e+09
2.99179e+09
2.99167e+09
2.99156e+09
2.99147e+09
2.99139e+09
2.99132e+09
2.99126e+09
2.99121e+09
2.99117e+09
2.99113e+09
2.9911e+09
2.99275e+09
2.9925e+09
2.99228e+09
2.99208e+09
2.99192e+09
2.99177e+09
2.99165e+09
2.99154e+09
2.99144e+09
2.99136e+09
2.9913e+09
2.99124e+09
2.99118e+09
2.99114e+09
2.9911e+09
2.99304e+09
2.99275e+09
2.99249e+09
2.99226e+09
2.99206e+09
2.99189e+09
2.99175e+09
2.99162e+09
2.99151e+09
2.99141e+09
2.99133e+09
2.99126e+09
2.9912e+09
2.99115e+09
2.9911e+09
2.99339e+09
2.99304e+09
2.99274e+09
2.99247e+09
2.99224e+09
2.99204e+09
2.99187e+09
2.99172e+09
2.99159e+09
2.99148e+09
2.99138e+09
2.9913e+09
2.99122e+09
2.99116e+09
2.99111e+09
2.99381e+09
2.9934e+09
2.99304e+09
2.99273e+09
2.99246e+09
2.99222e+09
2.99201e+09
2.99184e+09
2.99168e+09
2.99155e+09
2.99143e+09
2.99134e+09
2.99125e+09
2.99118e+09
2.99111e+09
2.99432e+09
2.99384e+09
2.99342e+09
2.99305e+09
2.99272e+09
2.99244e+09
2.99219e+09
2.99198e+09
2.9918e+09
2.99164e+09
2.9915e+09
2.99138e+09
2.99128e+09
2.99119e+09
2.99112e+09
2.99494e+09
2.99438e+09
2.99388e+09
2.99344e+09
2.99305e+09
2.99271e+09
2.99242e+09
2.99217e+09
2.99195e+09
2.99175e+09
2.99159e+09
2.99145e+09
2.99132e+09
2.99122e+09
2.99113e+09
2.99572e+09
2.99505e+09
2.99446e+09
2.99393e+09
2.99347e+09
2.99306e+09
2.99271e+09
2.9924e+09
2.99213e+09
2.9919e+09
2.9917e+09
2.99153e+09
2.99138e+09
2.99125e+09
2.99113e+09
2.99669e+09
2.99591e+09
2.9952e+09
2.99457e+09
2.994e+09
2.99351e+09
2.99307e+09
2.9927e+09
2.99237e+09
2.99208e+09
2.99184e+09
2.99163e+09
2.99144e+09
2.99128e+09
2.99115e+09
2.99792e+09
2.997e+09
2.99616e+09
2.99539e+09
2.9947e+09
2.99409e+09
2.99356e+09
2.99309e+09
2.99268e+09
2.99233e+09
2.99203e+09
2.99176e+09
2.99153e+09
2.99133e+09
2.99116e+09
2.99952e+09
2.99844e+09
2.99742e+09
2.99649e+09
2.99564e+09
2.99488e+09
2.99421e+09
2.99363e+09
2.99311e+09
2.99267e+09
2.99228e+09
2.99194e+09
2.99165e+09
2.9914e+09
2.99118e+09
3.00162e+09
3.00037e+09
2.99915e+09
2.998e+09
2.99694e+09
2.99598e+09
2.99513e+09
2.99437e+09
2.99371e+09
2.99313e+09
2.99263e+09
2.9922e+09
2.99182e+09
2.99149e+09
2.99121e+09
3.00441e+09
3.00305e+09
3.00158e+09
3.00014e+09
2.99879e+09
2.99755e+09
2.99644e+09
2.99545e+09
2.99458e+09
2.99381e+09
2.99315e+09
2.99257e+09
2.99207e+09
2.99163e+09
2.99126e+09
3.17595e+09
3.00714e+09
3.00516e+09
3.00326e+09
3.00151e+09
2.99988e+09
2.9984e+09
2.99706e+09
2.99588e+09
2.99483e+09
2.99392e+09
2.99313e+09
2.99244e+09
2.99184e+09
2.99132e+09
3.81916e+09
3.81145e+09
3.64307e+09
3.075e+09
3.0056e+09
3.00348e+09
3.00146e+09
2.99961e+09
2.99794e+09
2.99646e+09
2.99516e+09
2.99402e+09
2.99303e+09
2.99217e+09
2.99143e+09
3.8423e+09
3.83262e+09
3.82374e+09
3.816e+09
3.809e+09
3.56494e+09
3.00675e+09
3.00398e+09
3.00146e+09
2.99922e+09
2.99725e+09
2.99553e+09
2.99403e+09
2.99273e+09
2.9916e+09
3.86919e+09
3.8572e+09
3.84599e+09
3.83574e+09
3.82651e+09
3.81831e+09
3.81117e+09
3.8049e+09
3.02396e+09
3.00372e+09
3.00064e+09
2.99796e+09
2.99564e+09
2.99363e+09
2.99189e+09
3.90124e+09
3.88676e+09
3.87279e+09
3.85959e+09
3.84737e+09
3.83625e+09
3.82626e+09
3.81737e+09
3.80952e+09
3.59732e+09
3.00528e+09
3.00131e+09
2.99786e+09
2.99487e+09
2.99228e+09
3.94071e+09
3.92412e+09
3.90743e+09
3.89104e+09
3.87535e+09
3.86064e+09
3.8471e+09
3.83485e+09
3.82389e+09
3.81419e+09
3.80568e+09
3.00634e+09
3.00119e+09
2.99673e+09
2.99287e+09
3.99046e+09
3.97318e+09
3.95479e+09
3.93573e+09
3.9165e+09
3.89759e+09
3.87944e+09
3.8624e+09
3.84671e+09
3.83248e+09
3.81976e+09
3.8085e+09
3.00664e+09
2.99979e+09
2.99384e+09
4.05321e+09
4.03857e+09
4.0218e+09
4.00297e+09
3.98236e+09
3.96038e+09
3.93757e+09
3.91453e+09
3.89186e+09
3.87008e+09
3.84963e+09
3.83079e+09
3.81376e+09
3.00661e+09
2.99601e+09
4.12925e+09
4.12284e+09
4.11473e+09
4.10447e+09
4.09157e+09
4.07559e+09
4.05617e+09
4.03315e+09
4.00657e+09
3.9767e+09
3.94402e+09
3.90914e+09
3.87278e+09
3.83569e+09
3.0066e+09
2.99124e+09
2.99122e+09
2.99119e+09
2.99118e+09
2.99116e+09
2.99115e+09
2.99113e+09
2.99112e+09
2.99112e+09
2.99111e+09
2.9911e+09
2.9911e+09
2.99109e+09
2.99109e+09
2.99108e+09
2.99124e+09
2.99122e+09
2.9912e+09
2.99118e+09
2.99116e+09
2.99115e+09
2.99114e+09
2.99113e+09
2.99112e+09
2.99111e+09
2.9911e+09
2.9911e+09
2.99109e+09
2.99109e+09
2.99108e+09
2.99125e+09
2.99123e+09
2.9912e+09
2.99118e+09
2.99117e+09
2.99115e+09
2.99114e+09
2.99113e+09
2.99112e+09
2.99111e+09
2.9911e+09
2.9911e+09
2.99109e+09
2.99109e+09
2.99108e+09
2.99126e+09
2.99124e+09
2.99121e+09
2.99119e+09
2.99117e+09
2.99116e+09
2.99114e+09
2.99113e+09
2.99112e+09
2.99111e+09
2.99111e+09
2.9911e+09
2.99109e+09
2.99109e+09
2.99108e+09
2.99128e+09
2.99125e+09
2.99122e+09
2.9912e+09
2.99118e+09
2.99116e+09
2.99115e+09
2.99114e+09
2.99112e+09
2.99112e+09
2.99111e+09
2.9911e+09
2.99109e+09
2.99109e+09
2.99108e+09
2.9913e+09
2.99127e+09
2.99124e+09
2.99121e+09
2.99119e+09
2.99117e+09
2.99116e+09
2.99114e+09
2.99113e+09
2.99112e+09
2.99111e+09
2.9911e+09
2.9911e+09
2.99109e+09
2.99108e+09
2.99133e+09
2.99129e+09
2.99126e+09
2.99123e+09
2.9912e+09
2.99118e+09
2.99116e+09
2.99115e+09
2.99114e+09
2.99112e+09
2.99111e+09
2.9911e+09
2.9911e+09
2.99109e+09
2.99109e+09
2.99137e+09
2.99132e+09
2.99128e+09
2.99125e+09
2.99122e+09
2.9912e+09
2.99118e+09
2.99116e+09
2.99114e+09
2.99113e+09
2.99112e+09
2.99111e+09
2.9911e+09
2.99109e+09
2.99109e+09
2.99141e+09
2.99135e+09
2.99131e+09
2.99127e+09
2.99124e+09
2.99121e+09
2.99119e+09
2.99117e+09
2.99115e+09
2.99114e+09
2.99112e+09
2.99111e+09
2.9911e+09
2.99109e+09
2.99109e+09
2.99145e+09
2.99139e+09
2.99134e+09
2.9913e+09
2.99126e+09
2.99123e+09
2.99121e+09
2.99118e+09
2.99116e+09
2.99114e+09
2.99113e+09
2.99112e+09
2.9911e+09
2.99109e+09
2.99109e+09
2.99151e+09
2.99144e+09
2.99138e+09
2.99134e+09
2.99129e+09
2.99126e+09
2.99122e+09
2.9912e+09
2.99117e+09
2.99115e+09
2.99114e+09
2.99112e+09
2.99111e+09
2.9911e+09
2.99109e+09
2.99158e+09
2.9915e+09
2.99143e+09
2.99137e+09
2.99133e+09
2.99128e+09
2.99125e+09
2.99121e+09
2.99119e+09
2.99116e+09
2.99114e+09
2.99113e+09
2.99111e+09
2.9911e+09
2.99109e+09
2.99166e+09
2.99157e+09
2.99149e+09
2.99142e+09
2.99136e+09
2.99131e+09
2.99127e+09
2.99124e+09
2.9912e+09
2.99118e+09
2.99115e+09
2.99113e+09
2.99112e+09
2.9911e+09
2.99109e+09
2.99175e+09
2.99164e+09
2.99155e+09
2.99148e+09
2.99141e+09
2.99135e+09
2.9913e+09
2.99126e+09
2.99122e+09
2.99119e+09
2.99117e+09
2.99114e+09
2.99112e+09
2.9911e+09
2.99109e+09
2.99186e+09
2.99173e+09
2.99163e+09
2.99154e+09
2.99146e+09
2.9914e+09
2.99134e+09
2.99129e+09
2.99125e+09
2.99121e+09
2.99118e+09
2.99115e+09
2.99113e+09
2.99111e+09
2.99109e+09
2.99198e+09
2.99184e+09
2.99172e+09
2.99162e+09
2.99153e+09
2.99145e+09
2.99138e+09
2.99132e+09
2.99127e+09
2.99123e+09
2.9912e+09
2.99116e+09
2.99114e+09
2.99111e+09
2.99109e+09
2.99213e+09
2.99197e+09
2.99183e+09
2.9917e+09
2.9916e+09
2.99151e+09
2.99143e+09
2.99136e+09
2.99131e+09
2.99126e+09
2.99121e+09
2.99118e+09
2.99115e+09
2.99112e+09
2.99109e+09
2.9923e+09
2.99211e+09
2.99195e+09
2.99181e+09
2.99169e+09
2.99158e+09
2.99149e+09
2.99141e+09
2.99134e+09
2.99129e+09
2.99124e+09
2.99119e+09
2.99116e+09
2.99112e+09
2.9911e+09
2.99251e+09
2.99229e+09
2.9921e+09
2.99193e+09
2.99179e+09
2.99167e+09
2.99156e+09
2.99147e+09
2.99139e+09
2.99132e+09
2.99126e+09
2.99121e+09
2.99117e+09
2.99113e+09
2.9911e+09
2.99275e+09
2.9925e+09
2.99227e+09
2.99208e+09
2.99191e+09
2.99177e+09
2.99164e+09
2.99154e+09
2.99144e+09
2.99136e+09
2.99129e+09
2.99123e+09
2.99118e+09
2.99114e+09
2.9911e+09
2.99305e+09
2.99274e+09
2.99248e+09
2.99226e+09
2.99206e+09
2.99189e+09
2.99174e+09
2.99162e+09
2.99151e+09
2.99141e+09
2.99133e+09
2.99126e+09
2.9912e+09
2.99115e+09
2.9911e+09
2.99339e+09
2.99304e+09
2.99273e+09
2.99247e+09
2.99224e+09
2.99204e+09
2.99186e+09
2.99171e+09
2.99158e+09
2.99147e+09
2.99138e+09
2.99129e+09
2.99122e+09
2.99116e+09
2.99111e+09
2.99381e+09
2.9934e+09
2.99304e+09
2.99273e+09
2.99245e+09
2.99222e+09
2.99201e+09
2.99183e+09
2.99168e+09
2.99155e+09
2.99143e+09
2.99133e+09
2.99125e+09
2.99118e+09
2.99111e+09
2.99432e+09
2.99384e+09
2.99341e+09
2.99304e+09
2.99272e+09
2.99244e+09
2.99219e+09
2.99198e+09
2.9918e+09
2.99164e+09
2.9915e+09
2.99138e+09
2.99128e+09
2.99119e+09
2.99112e+09
2.99494e+09
2.99438e+09
2.99388e+09
2.99343e+09
2.99305e+09
2.99271e+09
2.99242e+09
2.99216e+09
2.99194e+09
2.99175e+09
2.99159e+09
2.99145e+09
2.99132e+09
2.99122e+09
2.99112e+09
2.99572e+09
2.99505e+09
2.99445e+09
2.99393e+09
2.99346e+09
2.99305e+09
2.9927e+09
2.99239e+09
2.99213e+09
2.9919e+09
2.9917e+09
2.99152e+09
2.99137e+09
2.99125e+09
2.99113e+09
2.99669e+09
2.9959e+09
2.99519e+09
2.99456e+09
2.99399e+09
2.9935e+09
2.99307e+09
2.99269e+09
2.99236e+09
2.99208e+09
2.99184e+09
2.99162e+09
2.99144e+09
2.99128e+09
2.99115e+09
2.99792e+09
2.997e+09
2.99615e+09
2.99538e+09
2.99469e+09
2.99408e+09
2.99355e+09
2.99308e+09
2.99268e+09
2.99233e+09
2.99202e+09
2.99176e+09
2.99153e+09
2.99133e+09
2.99116e+09
2.99952e+09
2.99843e+09
2.99741e+09
2.99647e+09
2.99563e+09
2.99487e+09
2.9942e+09
2.99362e+09
2.9931e+09
2.99266e+09
2.99227e+09
2.99194e+09
2.99165e+09
2.9914e+09
2.99118e+09
3.00161e+09
3.00036e+09
2.99913e+09
2.99798e+09
2.99692e+09
2.99596e+09
2.99511e+09
2.99436e+09
2.9937e+09
2.99313e+09
2.99263e+09
2.99219e+09
2.99182e+09
2.99149e+09
2.99121e+09
3.0044e+09
3.00303e+09
3.00156e+09
3.00012e+09
2.99877e+09
2.99753e+09
2.99642e+09
2.99543e+09
2.99456e+09
2.9938e+09
2.99314e+09
2.99256e+09
2.99206e+09
2.99163e+09
2.99126e+09
3.17586e+09
3.00713e+09
3.00514e+09
3.00324e+09
3.00149e+09
2.99986e+09
2.99838e+09
2.99705e+09
2.99586e+09
2.99482e+09
2.99391e+09
2.99312e+09
2.99243e+09
2.99184e+09
2.99132e+09
3.81918e+09
3.81143e+09
3.63857e+09
3.07214e+09
3.00558e+09
3.00345e+09
3.00143e+09
2.99958e+09
2.99792e+09
2.99644e+09
2.99514e+09
2.99401e+09
2.99302e+09
2.99217e+09
2.99143e+09
3.84232e+09
3.83257e+09
3.82366e+09
3.81591e+09
3.80891e+09
3.55107e+09
3.00669e+09
3.00393e+09
3.00142e+09
2.99918e+09
2.99722e+09
2.99551e+09
2.99401e+09
2.99272e+09
2.9916e+09
3.8692e+09
3.85711e+09
3.84585e+09
3.83558e+09
3.82633e+09
3.81815e+09
3.81103e+09
3.8048e+09
3.01472e+09
3.00369e+09
3.00061e+09
2.99794e+09
2.99563e+09
2.99362e+09
2.99189e+09
3.90123e+09
3.88665e+09
3.87262e+09
3.85941e+09
3.84719e+09
3.83608e+09
3.8261e+09
3.81724e+09
3.80942e+09
3.58328e+09
3.00523e+09
3.00127e+09
2.99783e+09
2.99485e+09
2.99228e+09
3.94068e+09
3.92399e+09
3.90725e+09
3.89085e+09
3.87516e+09
3.86046e+09
3.84694e+09
3.83471e+09
3.82377e+09
3.8141e+09
3.8056e+09
3.0063e+09
3.00117e+09
2.99672e+09
2.99287e+09
3.99042e+09
3.97305e+09
3.95461e+09
3.93553e+09
3.9163e+09
3.8974e+09
3.87927e+09
3.86226e+09
3.84659e+09
3.83238e+09
3.81968e+09
3.80844e+09
3.00661e+09
2.99977e+09
2.99383e+09
4.05317e+09
4.03846e+09
4.02165e+09
4.00281e+09
3.98219e+09
3.96022e+09
3.93742e+09
3.9144e+09
3.89175e+09
3.86999e+09
3.84956e+09
3.83074e+09
3.81372e+09
3.00659e+09
2.99601e+09
4.12923e+09
4.12279e+09
4.11467e+09
4.1044e+09
4.09149e+09
4.07551e+09
4.0561e+09
4.03309e+09
4.00651e+09
3.97665e+09
3.94398e+09
3.9091e+09
3.87276e+09
3.83567e+09
3.0066e+09
2.99124e+09
2.99121e+09
2.99119e+09
2.99117e+09
2.99116e+09
2.99115e+09
2.99113e+09
2.99112e+09
2.99112e+09
2.99111e+09
2.9911e+09
2.9911e+09
2.99109e+09
2.99109e+09
2.99108e+09
2.99124e+09
2.99122e+09
2.9912e+09
2.99118e+09
2.99116e+09
2.99115e+09
2.99114e+09
2.99113e+09
2.99112e+09
2.99111e+09
2.9911e+09
2.9911e+09
2.99109e+09
2.99109e+09
2.99108e+09
2.99125e+09
2.99122e+09
2.9912e+09
2.99118e+09
2.99117e+09
2.99115e+09
2.99114e+09
2.99113e+09
2.99112e+09
2.99111e+09
2.9911e+09
2.9911e+09
2.99109e+09
2.99109e+09
2.99108e+09
2.99126e+09
2.99124e+09
2.99121e+09
2.99119e+09
2.99117e+09
2.99116e+09
2.99114e+09
2.99113e+09
2.99112e+09
2.99111e+09
2.99111e+09
2.9911e+09
2.99109e+09
2.99109e+09
2.99108e+09
2.99128e+09
2.99125e+09
2.99122e+09
2.9912e+09
2.99118e+09
2.99116e+09
2.99115e+09
2.99114e+09