/*--------------------------------*- C++ -*----------------------------------*\
  =========                 |
  \\      /  F ield         | OpenFOAM: The Open Source CFD Toolbox
   \\    /   O peration     | Website:  https://openfoam.org
    \\  /    A nd           | Version:  6
     \\/     M anipulation  |
\*---------------------------------------------------------------------------*/
FoamFile
{
    version     2.0;
    format      ascii;
    class       volScalarField;
    location    "2239.98991017056005";
    object      p;
}
// * * * * * * * * * * * * * * * * * * * * * * * * * * * * * * * * * * * * * //

dimensions      [0 2 -2 0 0 0 0];

internalField   nonuniform List<scalar> 
120400
(
0
-1.78937
-2.51819
-2.86834
-3.05785
-3.16914
-3.2381
-3.28224
-3.31096
-3.32971
-3.3418
-3.34939
-3.3539
-3.3563
-3.35726
-2.78559
-2.9557
-3.11947
-3.23633
-3.3157
-3.36934
-3.40572
-3.43042
-3.44714
-3.45833
-3.46568
-3.47034
-3.47312
-3.47461
-3.4752
-3.45778
-3.47061
-3.50267
-3.5343
-3.56018
-3.57988
-3.59434
-3.60468
-3.61194
-3.61691
-3.62023
-3.62235
-3.62363
-3.62431
-3.62458
-3.74777
-3.74089
-3.74363
-3.74967
-3.75604
-3.76158
-3.76598
-3.7693
-3.77171
-3.7734
-3.77454
-3.77527
-3.77572
-3.77596
-3.77605
-3.92946
-3.92017
-3.91601
-3.91456
-3.91439
-3.91473
-3.9152
-3.91565
-3.91601
-3.91629
-3.91648
-3.9166
-3.91668
-3.91672
-3.91673
-4.06707
-4.05842
-4.05298
-4.04959
-4.04746
-4.04611
-4.04524
-4.04467
-4.04429
-4.04405
-4.04389
-4.04378
-4.04372
-4.04369
-4.04367
-4.18191
-4.1745
-4.16934
-4.16576
-4.16327
-4.16154
-4.16034
-4.1595
-4.15892
-4.15853
-4.15827
-4.1581
-4.158
-4.15794
-4.15792
-4.28304
-4.27689
-4.27242
-4.26919
-4.26687
-4.26522
-4.26404
-4.26321
-4.26263
-4.26224
-4.26197
-4.2618
-4.2617
-4.26165
-4.26162
-4.37507
-4.37001
-4.36627
-4.36352
-4.36152
-4.36008
-4.35904
-4.35831
-4.3578
-4.35745
-4.35721
-4.35706
-4.35697
-4.35692
-4.3569
-4.46062
-4.45649
-4.4534
-4.45111
-4.44944
-4.44822
-4.44735
-4.44673
-4.44629
-4.44599
-4.4458
-4.44567
-4.44559
-4.44555
-4.44553
-4.54136
-4.53798
-4.53543
-4.53355
-4.53216
-4.53116
-4.53043
-4.52992
-4.52956
-4.52931
-4.52915
-4.52904
-4.52898
-4.52894
-4.52893
-4.61841
-4.61562
-4.61353
-4.61198
-4.61084
-4.61001
-4.60942
-4.609
-4.6087
-4.6085
-4.60836
-4.60827
-4.60822
-4.60819
-4.60818
-4.69254
-4.69025
-4.68853
-4.68725
-4.68632
-4.68564
-4.68515
-4.6848
-4.68456
-4.68439
-4.68428
-4.68421
-4.68417
-4.68414
-4.68413
-4.76436
-4.76247
-4.76105
-4.76
-4.75923
-4.75866
-4.75826
-4.75798
-4.75778
-4.75764
-4.75755
-4.75749
-4.75746
-4.75744
-4.75743
-4.8343
-4.83274
-4.83157
-4.8307
-4.83006
-4.8296
-4.82927
-4.82904
-4.82887
-4.82876
-4.82868
-4.82864
-4.82861
-4.82859
-4.82859
-4.90273
-4.90143
-4.90046
-4.89975
-4.89922
-4.89884
-4.89857
-4.89838
-4.89824
-4.89815
-4.89809
-4.89805
-4.89803
-4.89801
-4.89801
-4.96991
-4.96884
-4.96804
-4.96745
-4.96702
-4.9667
-4.96648
-4.96632
-4.96621
-4.96613
-4.96608
-4.96605
-4.96603
-4.96602
-4.96602
-5.03609
-5.03521
-5.03454
-5.03405
-5.03369
-5.03343
-5.03325
-5.03312
-5.03303
-5.03296
-5.03292
-5.0329
-5.03288
-5.03287
-5.03287
-5.10145
-5.10072
-5.10017
-5.09976
-5.09947
-5.09925
-5.09909
-5.09899
-5.09891
-5.09886
-5.09882
-5.0988
-5.09879
-5.09878
-5.09878
-5.16617
-5.16556
-5.1651
-5.16476
-5.16451
-5.16432
-5.16419
-5.1641
-5.16403
-5.16398
-5.16395
-5.16394
-5.16392
-5.16392
-5.16391
-5.23038
-5.22988
-5.22949
-5.22919
-5.22897
-5.2288
-5.22868
-5.22859
-5.22853
-5.22849
-5.22846
-5.22844
-5.22843
-5.22842
-5.22842
-5.29425
-5.29383
-5.29348
-5.29321
-5.29299
-5.29281
-5.29268
-5.29258
-5.29251
-5.29246
-5.29242
-5.2924
-5.29239
-5.29238
-5.29238
-5.3579
-5.35756
-5.35725
-5.35697
-5.35672
-5.35649
-5.3563
-5.35614
-5.35601
-5.35592
-5.35586
-5.35582
-5.3558
-5.35578
-5.35578
-5.4215
-5.42127
-5.42103
-5.42077
-5.42046
-5.42011
-5.41971
-5.4193
-5.41898
-5.41874
-5.41857
-5.41846
-5.41839
-5.41835
-5.41834
-5.48515
-5.48514
-5.48513
-5.48511
-5.4851
-5.48503
-5.48411
-5.48207
-5.4808
-5.47999
-5.47947
-5.47915
-5.47895
-5.47885
-5.47881
-5.5342
-5.53419
-5.53418
-5.53417
-5.53416
-5.53414
-5.53412
-5.5341
-5.53408
-5.53408
-5.53413
-5.53383
-5.53365
-5.53356
-5.53352
-5.58324
-5.58322
-5.58322
-5.58322
-5.58322
-5.58321
-5.58321
-5.58321
-5.5832
-5.5832
-5.5832
-5.58296
-5.58309
-5.58311
-5.58311
-5.6323
-5.63229
-5.63228
-5.63227
-5.63225
-5.63224
-5.63222
-5.63221
-5.6322
-5.63219
-5.63219
-5.63219
-5.63219
-5.63219
-5.63219
-5.68138
-5.68135
-5.68134
-5.68132
-5.68129
-5.68127
-5.68125
-5.68124
-5.68123
-5.68122
-5.68121
-5.68121
-5.68121
-5.68121
-5.68121
-5.73045
-5.73042
-5.7304
-5.73038
-5.73036
-5.73033
-5.73031
-5.7303
-5.73029
-5.73028
-5.73027
-5.73027
-5.73027
-5.73027
-5.73026
-5.77951
-5.7795
-5.77947
-5.77945
-5.77944
-5.77942
-5.7794
-5.77939
-5.77938
-5.77937
-5.77936
-5.77936
-5.77936
-5.77936
-5.77936
-5.82859
-5.82857
-5.82855
-5.82853
-5.82851
-5.8285
-5.82849
-5.82848
-5.82847
-5.82847
-5.82847
-5.82846
-5.82846
-5.82846
-5.82846
-5.87767
-5.87765
-5.87763
-5.87761
-5.8776
-5.87758
-5.87757
-5.87756
-5.87755
-5.87755
-5.87754
-5.87754
-5.87754
-5.87754
-5.87754
-5.92674
-5.92673
-5.92671
-5.9267
-5.92668
-5.92667
-5.92666
-5.92665
-5.92664
-5.92663
-5.92663
-5.92663
-5.92663
-5.92663
-5.92663
-5.97579
-5.97578
-5.97578
-5.97576
-5.97575
-5.97574
-5.97573
-5.97572
-5.97571
-5.97571
-5.9757
-5.9757
-5.9757
-5.9757
-5.9757
-6.02483
-6.02482
-6.02482
-6.02481
-6.0248
-6.0248
-6.02479
-6.02478
-6.02478
-6.02477
-6.02477
-6.02477
-6.02477
-6.02477
-6.02477
-6.07386
-6.07386
-6.07386
-6.07385
-6.07384
-6.07384
-6.07384
-6.07383
-6.07383
-6.07383
-6.07383
-6.07383
-6.07383
-6.07383
-6.07383
-6.1229
-6.1229
-6.12289
-6.12288
-6.12288
-6.12288
-6.12287
-6.12287
-6.12288
-6.12288
-6.12288
-6.12288
-6.12288
-6.12288
-6.12288
-6.17195
-6.17194
-6.17193
-6.17192
-6.17192
-6.17191
-6.17191
-6.17191
-6.17191
-6.1719
-6.1719
-6.1719
-6.1719
-6.1719
-6.1719
-6.22099
-6.22098
-6.22098
-6.22097
-6.22096
-6.22096
-6.22095
-6.22096
-6.22096
-6.22097
-6.22098
-6.22098
-6.22099
-6.221
-6.22101
-2.39572
-2.66882
-2.91086
-3.07547
-3.18337
-3.25436
-3.30155
-3.33311
-3.35424
-3.36827
-3.37743
-3.3832
-3.38665
-3.38848
-3.38921
-3.12588
-3.1791
-3.25955
-3.32912
-3.38179
-3.41982
-3.44669
-3.46542
-3.47831
-3.48703
-3.49278
-3.49644
-3.49863
-3.4998
-3.50027
-3.52859
-3.53144
-3.55069
-3.57241
-3.5914
-3.60642
-3.61771
-3.6259
-3.6317
-3.63569
-3.63836
-3.64006
-3.64109
-3.64164
-3.64185
-3.77015
-3.76246
-3.76311
-3.76707
-3.77172
-3.77595
-3.77939
-3.78201
-3.78392
-3.78527
-3.78617
-3.78676
-3.78711
-3.78729
-3.78737
-3.93941
-3.93015
-3.92563
-3.92372
-3.92312
-3.92309
-3.92327
-3.9235
-3.92371
-3.92386
-3.92397
-3.92405
-3.92409
-3.92411
-3.92412
-4.07257
-4.064
-4.05851
-4.05501
-4.05277
-4.05132
-4.05036
-4.04973
-4.0493
-4.04901
-4.04883
-4.0487
-4.04863
-4.04859
-4.04857
-4.18537
-4.17801
-4.17285
-4.16925
-4.16674
-4.16498
-4.16375
-4.16289
-4.1623
-4.16189
-4.16162
-4.16145
-4.16134
-4.16128
-4.16126
-4.2854
-4.27927
-4.2748
-4.27158
-4.26926
-4.26759
-4.26641
-4.26557
-4.26499
-4.26459
-4.26432
-4.26415
-4.26405
-4.26399
-4.26397
-4.37676
-4.37171
-4.36797
-4.36523
-4.36323
-4.36178
-4.36075
-4.36001
-4.3595
-4.35914
-4.35891
-4.35876
-4.35866
-4.35861
-4.35859
-4.46189
-4.45775
-4.45465
-4.45237
-4.4507
-4.44948
-4.44861
-4.44799
-4.44755
-4.44726
-4.44706
-4.44693
-4.44685
-4.44681
-4.44679
-4.54234
-4.53894
-4.53639
-4.53451
-4.53312
-4.53212
-4.53139
-4.53088
-4.53052
-4.53027
-4.53011
-4.53
-4.52994
-4.5299
-4.52989
-4.61917
-4.61638
-4.61428
-4.61273
-4.61159
-4.61076
-4.61017
-4.60974
-4.60945
-4.60925
-4.60911
-4.60902
-4.60897
-4.60894
-4.60893
-4.69316
-4.69086
-4.68913
-4.68785
-4.68691
-4.68623
-4.68574
-4.68539
-4.68515
-4.68499
-4.68487
-4.6848
-4.68476
-4.68474
-4.68473
-4.76486
-4.76296
-4.76154
-4.76048
-4.75971
-4.75915
-4.75875
-4.75846
-4.75826
-4.75812
-4.75803
-4.75798
-4.75794
-4.75792
-4.75791
-4.83472
-4.83315
-4.83197
-4.8311
-4.83046
-4.83
-4.82967
-4.82944
-4.82927
-4.82916
-4.82909
-4.82904
-4.82901
-4.82899
-4.82899
-4.90308
-4.90178
-4.9008
-4.90009
-4.89956
-4.89918
-4.89891
-4.89871
-4.89858
-4.89849
-4.89843
-4.89839
-4.89836
-4.89835
-4.89835
-4.97021
-4.96913
-4.96833
-4.96774
-4.9673
-4.96699
-4.96677
-4.96661
-4.9665
-4.96642
-4.96637
-4.96634
-4.96632
-4.96631
-4.9663
-5.03635
-5.03546
-5.03479
-5.0343
-5.03394
-5.03368
-5.0335
-5.03337
-5.03328
-5.03321
-5.03317
-5.03315
-5.03313
-5.03312
-5.03312
-5.10167
-5.10094
-5.10039
-5.09998
-5.09968
-5.09946
-5.09931
-5.0992
-5.09912
-5.09907
-5.09904
-5.09902
-5.099
-5.099
-5.09899
-5.16635
-5.16575
-5.16529
-5.16495
-5.16469
-5.16451
-5.16438
-5.16428
-5.16422
-5.16417
-5.16414
-5.16413
-5.16411
-5.16411
-5.16411
-5.23054
-5.23003
-5.22965
-5.22935
-5.22913
-5.22896
-5.22884
-5.22876
-5.2287
-5.22865
-5.22862
-5.22861
-5.2286
-5.22859
-5.22859
-5.29437
-5.29395
-5.29361
-5.29334
-5.29312
-5.29295
-5.29282
-5.29273
-5.29265
-5.29261
-5.29257
-5.29255
-5.29254
-5.29253
-5.29253
-5.35799
-5.35765
-5.35735
-5.35707
-5.35683
-5.35661
-5.35642
-5.35626
-5.35615
-5.35606
-5.356
-5.35596
-5.35593
-5.35592
-5.35591
-5.42155
-5.42132
-5.42109
-5.42083
-5.42054
-5.42021
-5.41982
-5.41943
-5.41911
-5.41887
-5.4187
-5.41859
-5.41853
-5.41849
-5.41848
-5.48515
-5.48513
-5.48512
-5.48511
-5.4851
-5.48506
-5.48433
-5.48225
-5.48096
-5.48014
-5.47962
-5.47929
-5.4791
-5.47899
-5.47895
-5.5342
-5.53418
-5.53417
-5.53416
-5.53416
-5.53414
-5.53413
-5.53411
-5.53409
-5.53409
-5.53414
-5.53386
-5.53369
-5.5336
-5.53357
-5.58324
-5.58322
-5.58321
-5.58321
-5.58321
-5.58321
-5.58321
-5.58321
-5.5832
-5.5832
-5.5832
-5.583
-5.58311
-5.58313
-5.58313
-5.63231
-5.63229
-5.63228
-5.63227
-5.63226
-5.63224
-5.63222
-5.63221
-5.6322
-5.6322
-5.63219
-5.63219
-5.63219
-5.63219
-5.63219
-5.68139
-5.68136
-5.68135
-5.68132
-5.6813
-5.68128
-5.68127
-5.68126
-5.68125
-5.68124
-5.68123
-5.68123
-5.68123
-5.68123
-5.68123
-5.73046
-5.73043
-5.73041
-5.73039
-5.73037
-5.73035
-5.73033
-5.73032
-5.73031
-5.73031
-5.7303
-5.7303
-5.7303
-5.7303
-5.7303
-5.77951
-5.7795
-5.77947
-5.77945
-5.77944
-5.77943
-5.77941
-5.7794
-5.77939
-5.77939
-5.77938
-5.77938
-5.77938
-5.77938
-5.77938
-5.82857
-5.82856
-5.82854
-5.82852
-5.82851
-5.8285
-5.82849
-5.82848
-5.82847
-5.82847
-5.82847
-5.82846
-5.82846
-5.82846
-5.82846
-5.87765
-5.87763
-5.87762
-5.8776
-5.87758
-5.87757
-5.87756
-5.87755
-5.87755
-5.87754
-5.87754
-5.87754
-5.87754
-5.87754
-5.87754
-5.92672
-5.9267
-5.92669
-5.92667
-5.92666
-5.92665
-5.92664
-5.92663
-5.92663
-5.92663
-5.92662
-5.92662
-5.92662
-5.92662
-5.92662
-5.97578
-5.97577
-5.97576
-5.97575
-5.97573
-5.97572
-5.97571
-5.97571
-5.9757
-5.9757
-5.9757
-5.97569
-5.97569
-5.97569
-5.97569
-6.02482
-6.02482
-6.02481
-6.0248
-6.0248
-6.02479
-6.02478
-6.02478
-6.02477
-6.02477
-6.02476
-6.02476
-6.02476
-6.02476
-6.02476
-6.07386
-6.07386
-6.07385
-6.07385
-6.07384
-6.07383
-6.07383
-6.07383
-6.07382
-6.07382
-6.07382
-6.07382
-6.07382
-6.07382
-6.07382
-6.12291
-6.1229
-6.12289
-6.12288
-6.12288
-6.12288
-6.12287
-6.12287
-6.12288
-6.12288
-6.12288
-6.12288
-6.12288
-6.12288
-6.12288
-6.17195
-6.17194
-6.17193
-6.17192
-6.17192
-6.17191
-6.17191
-6.17191
-6.17191
-6.1719
-6.1719
-6.1719
-6.1719
-6.1719
-6.1719
-6.22099
-6.22098
-6.22098
-6.22097
-6.22096
-6.22096
-6.22095
-6.22095
-6.22096
-6.22096
-6.22097
-6.22098
-6.22099
-6.22099
-6.221
-3.10546
-3.1587
-3.23535
-3.30106
-3.35069
-3.3865
-3.41181
-3.42947
-3.44163
-3.44986
-3.4553
-3.45876
-3.46084
-3.46195
-3.46239
-3.38401
-3.3974
-3.43011
-3.46325
-3.49082
-3.51199
-3.52759
-3.53877
-3.54662
-3.552
-3.55559
-3.55788
-3.55926
-3.56
-3.56029
-3.62691
-3.62378
-3.63197
-3.64331
-3.65411
-3.66308
-3.67003
-3.67518
-3.67888
-3.68145
-3.68318
-3.68429
-3.68496
-3.68532
-3.68546
-3.81399
-3.80584
-3.80422
-3.80558
-3.80792
-3.8103
-3.81234
-3.81394
-3.81513
-3.81597
-3.81655
-3.81692
-3.81715
-3.81727
-3.81732
-3.96232
-3.95341
-3.94861
-3.94619
-3.94505
-3.94455
-3.94436
-3.9443
-3.9443
-3.94432
-3.94433
-3.94435
-3.94435
-3.94436
-3.94436
-4.08615
-4.07795
-4.07259
-4.06909
-4.06681
-4.06529
-4.06428
-4.0636
-4.06314
-4.06283
-4.06262
-4.06249
-4.06241
-4.06237
-4.06235
-4.19418
-4.18709
-4.18211
-4.17861
-4.17617
-4.17445
-4.17324
-4.1724
-4.17182
-4.17143
-4.17116
-4.17099
-4.17089
-4.17083
-4.17081
-4.29148
-4.28553
-4.28121
-4.27809
-4.27584
-4.27423
-4.27309
-4.27228
-4.27172
-4.27133
-4.27108
-4.27091
-4.27081
-4.27076
-4.27073
-4.38115
-4.37622
-4.37258
-4.36992
-4.36798
-4.36658
-4.36558
-4.36487
-4.36437
-4.36403
-4.36381
-4.36366
-4.36357
-4.36352
-4.3635
-4.46517
-4.46109
-4.45807
-4.45584
-4.45421
-4.45303
-4.45219
-4.45159
-4.45116
-4.45088
-4.45068
-4.45056
-4.45049
-4.45044
-4.45043
-4.54484
-4.54149
-4.53899
-4.53714
-4.53579
-4.53481
-4.5341
-4.5336
-4.53325
-4.53301
-4.53285
-4.53275
-4.53269
-4.53265
-4.53264
-4.62113
-4.61836
-4.61629
-4.61477
-4.61365
-4.61284
-4.61225
-4.61184
-4.61155
-4.61135
-4.61122
-4.61114
-4.61108
-4.61106
-4.61104
-4.69471
-4.69242
-4.69071
-4.68945
-4.68853
-4.68786
-4.68738
-4.68704
-4.6868
-4.68664
-4.68653
-4.68646
-4.68642
-4.68639
-4.68638
-4.76611
-4.76421
-4.7628
-4.76175
-4.76099
-4.76044
-4.76004
-4.75976
-4.75957
-4.75943
-4.75934
-4.75929
-4.75925
-4.75923
-4.75922
-4.83573
-4.83416
-4.83299
-4.83213
-4.8315
-4.83104
-4.83071
-4.83048
-4.83032
-4.83021
-4.83014
-4.83009
-4.83006
-4.83005
-4.83004
-4.9039
-4.9026
-4.90163
-4.90092
-4.9004
-4.90002
-4.89975
-4.89956
-4.89943
-4.89934
-4.89928
-4.89924
-4.89921
-4.8992
-4.8992
-4.97089
-4.96981
-4.96901
-4.96842
-4.96799
-4.96768
-4.96746
-4.9673
-4.96719
-4.96712
-4.96707
-4.96704
-4.96702
-4.96701
-4.967
-5.0369
-5.03601
-5.03535
-5.03486
-5.0345
-5.03425
-5.03406
-5.03393
-5.03384
-5.03378
-5.03374
-5.03371
-5.0337
-5.03369
-5.03368
-5.10213
-5.10139
-5.10084
-5.10043
-5.10014
-5.09993
-5.09977
-5.09967
-5.09959
-5.09954
-5.09951
-5.09948
-5.09947
-5.09946
-5.09946
-5.16672
-5.16611
-5.16565
-5.16532
-5.16507
-5.16488
-5.16475
-5.16466
-5.1646
-5.16455
-5.16452
-5.1645
-5.16449
-5.16449
-5.16448
-5.23083
-5.23033
-5.22994
-5.22965
-5.22943
-5.22926
-5.22915
-5.22906
-5.229
-5.22896
-5.22893
-5.22891
-5.2289
-5.2289
-5.2289
-5.29459
-5.29417
-5.29383
-5.29356
-5.29335
-5.29318
-5.29306
-5.29296
-5.29289
-5.29284
-5.29281
-5.29279
-5.29277
-5.29277
-5.29276
-5.35814
-5.3578
-5.3575
-5.35723
-5.35699
-5.35678
-5.35659
-5.35644
-5.35632
-5.35624
-5.35618
-5.35614
-5.35612
-5.35611
-5.3561
-5.42163
-5.4214
-5.42117
-5.42092
-5.42064
-5.4203
-5.41992
-5.41954
-5.41922
-5.41899
-5.41882
-5.41872
-5.41865
-5.41861
-5.4186
-5.48515
-5.48514
-5.48512
-5.48512
-5.48511
-5.48507
-5.48424
-5.48223
-5.48097
-5.48017
-5.47966
-5.47934
-5.47915
-5.47905
-5.47901
-5.5342
-5.53419
-5.53417
-5.53417
-5.53417
-5.53416
-5.53415
-5.53413
-5.53412
-5.53412
-5.53415
-5.53387
-5.53371
-5.53362
-5.53359
-5.58324
-5.58322
-5.58321
-5.58321
-5.58321
-5.58321
-5.58321
-5.58321
-5.58321
-5.58321
-5.58321
-5.58308
-5.58316
-5.58317
-5.58316
-5.63232
-5.6323
-5.63229
-5.63228
-5.63227
-5.63226
-5.63225
-5.63223
-5.63223
-5.63222
-5.63222
-5.63222
-5.63222
-5.63222
-5.63222
-5.68141
-5.68138
-5.68136
-5.68134
-5.68132
-5.68131
-5.6813
-5.68129
-5.68128
-5.68128
-5.68128
-5.68127
-5.68127
-5.68127
-5.68127
-5.73047
-5.73045
-5.73042
-5.73041
-5.73039
-5.73038
-5.73037
-5.73036
-5.73035
-5.73035
-5.73034
-5.73034
-5.73034
-5.73034
-5.73034
-5.77952
-5.7795
-5.77948
-5.77947
-5.77946
-5.77945
-5.77944
-5.77943
-5.77943
-5.77942
-5.77942
-5.77942
-5.77941
-5.77941
-5.77941
-5.82857
-5.82856
-5.82854
-5.82853
-5.82852
-5.82851
-5.8285
-5.8285
-5.8285
-5.82849
-5.82849
-5.82849
-5.82849
-5.82849
-5.82849
-5.87764
-5.87762
-5.87761
-5.8776
-5.87759
-5.87758
-5.87757
-5.87756
-5.87756
-5.87756
-5.87756
-5.87756
-5.87755
-5.87755
-5.87755
-5.92671
-5.92669
-5.92668
-5.92667
-5.92665
-5.92665
-5.92664
-5.92663
-5.92663
-5.92663
-5.92662
-5.92662
-5.92662
-5.92662
-5.92662
-5.97577
-5.97576
-5.97575
-5.97573
-5.97572
-5.97571
-5.97571
-5.9757
-5.9757
-5.97569
-5.97569
-5.97569
-5.97569
-5.97569
-5.97569
-6.02481
-6.02481
-6.0248
-6.0248
-6.02479
-6.02478
-6.02478
-6.02477
-6.02477
-6.02476
-6.02476
-6.02476
-6.02476
-6.02476
-6.02476
-6.07386
-6.07385
-6.07385
-6.07384
-6.07384
-6.07383
-6.07382
-6.07382
-6.07382
-6.07382
-6.07382
-6.07382
-6.07382
-6.07381
-6.07382
-6.12291
-6.1229
-6.12289
-6.12288
-6.12288
-6.12288
-6.12288
-6.12287
-6.12287
-6.12287
-6.12288
-6.12288
-6.12288
-6.12288
-6.12288
-6.17195
-6.17194
-6.17193
-6.17192
-6.17192
-6.17191
-6.17191
-6.17191
-6.1719
-6.1719
-6.1719
-6.1719
-6.1719
-6.1719
-6.1719
-6.221
-6.22099
-6.22098
-6.22097
-6.22096
-6.22096
-6.22095
-6.22095
-6.22096
-6.22096
-6.22097
-6.22098
-6.22099
-6.221
-6.221
-3.41675
-3.4262
-3.45033
-3.47513
-3.496
-3.51217
-3.52417
-3.53283
-3.53894
-3.54314
-3.54595
-3.54776
-3.54884
-3.54943
-3.54966
-3.56176
-3.56178
-3.57307
-3.58685
-3.59941
-3.60963
-3.61745
-3.62321
-3.62732
-3.63018
-3.63211
-3.63335
-3.6341
-3.6345
-3.63466
-3.72089
-3.71501
-3.71663
-3.72112
-3.72607
-3.73048
-3.73405
-3.73676
-3.73875
-3.74015
-3.7411
-3.74171
-3.74209
-3.74229
-3.74237
-3.8657
-3.85759
-3.85445
-3.85384
-3.85433
-3.85517
-3.85601
-3.85673
-3.85729
-3.8577
-3.85799
-3.85817
-3.85829
-3.85835
-3.85837
-3.9929
-3.98458
-3.97973
-3.97696
-3.97541
-3.97453
-3.97402
-3.97373
-3.97355
-3.97345
-3.97338
-3.97334
-3.97332
-3.97331
-3.9733
-4.10558
-4.09794
-4.09287
-4.08949
-4.08724
-4.08572
-4.08469
-4.08399
-4.08352
-4.0832
-4.08299
-4.08285
-4.08277
-4.08273
-4.08271
-4.20727
-4.20062
-4.19594
-4.19265
-4.19034
-4.18872
-4.18758
-4.18678
-4.18623
-4.18586
-4.18561
-4.18545
-4.18535
-4.1853
-4.18528
-4.30072
-4.29509
-4.29101
-4.28807
-4.28596
-4.28445
-4.28338
-4.28262
-4.2821
-4.28174
-4.2815
-4.28134
-4.28125
-4.2812
-4.28118
-4.3879
-4.38319
-4.37973
-4.37721
-4.37538
-4.37406
-4.37312
-4.37245
-4.37199
-4.37167
-4.37146
-4.37132
-4.37124
-4.37119
-4.37117
-4.47024
-4.46632
-4.46342
-4.4613
-4.45975
-4.45863
-4.45783
-4.45726
-4.45686
-4.45659
-4.45641
-4.45629
-4.45622
-4.45618
-4.45617
-4.54873
-4.54548
-4.54307
-4.5413
-4.54
-4.53907
-4.53839
-4.53792
-4.53758
-4.53736
-4.5372
-4.53711
-4.53705
-4.53701
-4.537
-4.62417
-4.62147
-4.61946
-4.61799
-4.61691
-4.61613
-4.61557
-4.61518
-4.6149
-4.61471
-4.61458
-4.6145
-4.61446
-4.61443
-4.61442
-4.69711
-4.69487
-4.6932
-4.69198
-4.69109
-4.69044
-4.68998
-4.68965
-4.68942
-4.68926
-4.68916
-4.68909
-4.68905
-4.68903
-4.68902
-4.76803
-4.76616
-4.76478
-4.76377
-4.76302
-4.76249
-4.7621
-4.76183
-4.76164
-4.76151
-4.76143
-4.76137
-4.76134
-4.76132
-4.76131
-4.83728
-4.83573
-4.83458
-4.83374
-4.83312
-4.83268
-4.83236
-4.83214
-4.83198
-4.83187
-4.8318
-4.83175
-4.83173
-4.83171
-4.8317
-4.90516
-4.90387
-4.90292
-4.90222
-4.90171
-4.90134
-4.90108
-4.90089
-4.90077
-4.90068
-4.90062
-4.90058
-4.90056
-4.90055
-4.90054
-4.97192
-4.97084
-4.97005
-4.96947
-4.96905
-4.96875
-4.96853
-4.96837
-4.96827
-4.96819
-4.96815
-4.96811
-4.9681
-4.96809
-4.96808
-5.03774
-5.03685
-5.03619
-5.03571
-5.03536
-5.03511
-5.03493
-5.0348
-5.03472
-5.03466
-5.03462
-5.03459
-5.03458
-5.03457
-5.03456
-5.1028
-5.10207
-5.10152
-5.10112
-5.10083
-5.10062
-5.10047
-5.10037
-5.10029
-5.10024
-5.10021
-5.10019
-5.10017
-5.10017
-5.10016
-5.16726
-5.16665
-5.1662
-5.16587
-5.16562
-5.16544
-5.16531
-5.16522
-5.16516
-5.16512
-5.16509
-5.16507
-5.16506
-5.16505
-5.16505
-5.23125
-5.23075
-5.23036
-5.23007
-5.22986
-5.2297
-5.22958
-5.2295
-5.22944
-5.2294
-5.22937
-5.22935
-5.22934
-5.22934
-5.22933
-5.2949
-5.29448
-5.29415
-5.29389
-5.29368
-5.29351
-5.29339
-5.29329
-5.29323
-5.29318
-5.29315
-5.29313
-5.29311
-5.29311
-5.2931
-5.35835
-5.35801
-5.35772
-5.35745
-5.35721
-5.357
-5.35682
-5.35667
-5.35656
-5.35647
-5.35641
-5.35638
-5.35635
-5.35634
-5.35633
-5.42173
-5.42151
-5.42129
-5.42104
-5.42076
-5.42043
-5.42006
-5.41968
-5.41936
-5.41913
-5.41897
-5.41887
-5.4188
-5.41877
-5.41875
-5.48515
-5.48514
-5.48513
-5.48512
-5.48511
-5.48508
-5.48428
-5.48228
-5.48103
-5.48023
-5.47973
-5.47941
-5.47922
-5.47912
-5.47908
-5.5342
-5.53419
-5.53418
-5.53418
-5.53417
-5.53416
-5.53416
-5.53416
-5.53415
-5.53415
-5.53416
-5.53389
-5.53373
-5.53364
-5.53361
-5.58325
-5.58323
-5.58322
-5.58321
-5.58322
-5.58322
-5.58322
-5.58322
-5.58322
-5.58322
-5.58322
-5.58316
-5.5832
-5.58321
-5.5832
-5.63233
-5.63231
-5.6323
-5.63229
-5.63228
-5.63227
-5.63226
-5.63226
-5.63226
-5.63226
-5.63226
-5.63226
-5.63226
-5.63226
-5.63226
-5.68141
-5.68139
-5.68137
-5.68136
-5.68134
-5.68133
-5.68133
-5.68132
-5.68132
-5.68131
-5.68131
-5.68131
-5.68131
-5.68131
-5.68131
-5.73048
-5.73046
-5.73044
-5.73042
-5.73041
-5.7304
-5.73039
-5.73039
-5.73038
-5.73038
-5.73037
-5.73037
-5.73037
-5.73037
-5.73037
-5.77953
-5.77951
-5.7795
-5.77949
-5.77948
-5.77947
-5.77946
-5.77946
-5.77945
-5.77945
-5.77945
-5.77945
-5.77945
-5.77945
-5.77945
-5.82857
-5.82856
-5.82855
-5.82855
-5.82854
-5.82853
-5.82853
-5.82852
-5.82852
-5.82851
-5.82851
-5.82851
-5.82851
-5.82851
-5.82851
-5.87763
-5.87762
-5.87761
-5.87761
-5.8776
-5.87759
-5.87759
-5.87759
-5.87758
-5.87758
-5.87758
-5.87758
-5.87758
-5.87758
-5.87758
-5.9267
-5.92668
-5.92668
-5.92667
-5.92666
-5.92665
-5.92665
-5.92665
-5.92664
-5.92664
-5.92664
-5.92664
-5.92664
-5.92664
-5.92664
-5.97576
-5.97575
-5.97574
-5.97573
-5.97572
-5.97571
-5.97571
-5.97571
-5.9757
-5.9757
-5.9757
-5.9757
-5.9757
-5.9757
-5.9757
-6.02481
-6.0248
-6.02479
-6.02478
-6.02478
-6.02478
-6.02477
-6.02477
-6.02476
-6.02476
-6.02476
-6.02476
-6.02476
-6.02476
-6.02476
-6.07386
-6.07385
-6.07384
-6.07383
-6.07383
-6.07383
-6.07382
-6.07382
-6.07381
-6.07381
-6.07381
-6.07381
-6.07381
-6.07381
-6.07381
-6.12291
-6.1229
-6.12289
-6.12288
-6.12288
-6.12287
-6.12287
-6.12287
-6.12287
-6.12287
-6.12287
-6.12287
-6.12287
-6.12287
-6.12287
-6.17195
-6.17194
-6.17193
-6.17192
-6.17192
-6.17191
-6.17191
-6.17191
-6.17191
-6.1719
-6.1719
-6.1719
-6.1719
-6.1719
-6.1719
-6.221
-6.22099
-6.22098
-6.22097
-6.22096
-6.22096
-6.22095
-6.22095
-6.22096
-6.22096
-6.22097
-6.22098
-6.22099
-6.221
-6.221
-3.58936
-3.58747
-3.59385
-3.60242
-3.61052
-3.61723
-3.62245
-3.62633
-3.62913
-3.63108
-3.63241
-3.63326
-3.63378
-3.63406
-3.63417
-3.68601
-3.68137
-3.68358
-3.68825
-3.69318
-3.69751
-3.70098
-3.70362
-3.70555
-3.7069
-3.70783
-3.70843
-3.70879
-3.70899
-3.70907
-3.80126
-3.79442
-3.79276
-3.7935
-3.79508
-3.79676
-3.79824
-3.79943
-3.80032
-3.80097
-3.80141
-3.8017
-3.80188
-3.80197
-3.80201
-3.91698
-3.90926
-3.9054
-3.90367
-3.90302
-3.90288
-3.90296
-3.90309
-3.90323
-3.90335
-3.90343
-3.90349
-3.90353
-3.90355
-3.90355
-4.02642
-4.01881
-4.01414
-4.01127
-4.00952
-4.00843
-4.00774
-4.0073
-4.00701
-4.00683
-4.00671
-4.00664
-4.0066
-4.00657
-4.00656
-4.12828
-4.12133
-4.11665
-4.11349
-4.11136
-4.10991
-4.10891
-4.10823
-4.10777
-4.10746
-4.10725
-4.10712
-4.10704
-4.107
-4.10698
-4.2232
-4.21711
-4.21282
-4.2098
-4.20768
-4.20619
-4.20514
-4.20441
-4.20391
-4.20356
-4.20334
-4.20319
-4.2031
-4.20306
-4.20304
-4.31226
-4.30704
-4.30328
-4.30058
-4.29865
-4.29727
-4.29629
-4.2956
-4.29512
-4.2948
-4.29458
-4.29444
-4.29436
-4.29431
-4.29429
-4.39649
-4.39208
-4.38886
-4.38652
-4.38483
-4.38362
-4.38276
-4.38215
-4.38172
-4.38143
-4.38124
-4.38111
-4.38104
-4.381
-4.38098
-4.47676
-4.47305
-4.47033
-4.46835
-4.46691
-4.46587
-4.46513
-4.4646
-4.46424
-4.46399
-4.46382
-4.46371
-4.46365
-4.46361
-4.4636
-4.55378
-4.55068
-4.5484
-4.54673
-4.54551
-4.54463
-4.54401
-4.54356
-4.54325
-4.54304
-4.5429
-4.54281
-4.54275
-4.54272
-4.54271
-4.62812
-4.62553
-4.62362
-4.62222
-4.6212
-4.62047
-4.61994
-4.61957
-4.61931
-4.61913
-4.61901
-4.61894
-4.61889
-4.61887
-4.61885
-4.70025
-4.69809
-4.69649
-4.69532
-4.69447
-4.69386
-4.69342
-4.69311
-4.69289
-4.69274
-4.69264
-4.69258
-4.69254
-4.69252
-4.69251
-4.77055
-4.76874
-4.76741
-4.76643
-4.76572
-4.76521
-4.76484
-4.76458
-4.7644
-4.76428
-4.76419
-4.76414
-4.76411
-4.76409
-4.76408
-4.83931
-4.8378
-4.83669
-4.83588
-4.83528
-4.83486
-4.83455
-4.83434
-4.83419
-4.83408
-4.83402
-4.83397
-4.83395
-4.83393
-4.83392
-4.90681
-4.90555
-4.90462
-4.90394
-4.90345
-4.9031
-4.90284
-4.90266
-4.90254
-4.90245
-4.9024
-4.90236
-4.90234
-4.90233
-4.90232
-4.97325
-4.9722
-4.97143
-4.97087
-4.97046
-4.97016
-4.96995
-4.9698
-4.9697
-4.96963
-4.96958
-4.96955
-4.96954
-4.96953
-4.96952
-5.03882
-5.03795
-5.03731
-5.03684
-5.0365
-5.03625
-5.03608
-5.03595
-5.03587
-5.03581
-5.03577
-5.03575
-5.03573
-5.03572
-5.03572
-5.10367
-5.10295
-5.10242
-5.10203
-5.10174
-5.10154
-5.10139
-5.10129
-5.10122
-5.10117
-5.10114
-5.10112
-5.1011
-5.1011
-5.10109
-5.16795
-5.16735
-5.16691
-5.16658
-5.16634
-5.16617
-5.16604
-5.16595
-5.16589
-5.16585
-5.16582
-5.1658
-5.16579
-5.16579
-5.16578
-5.23178
-5.23129
-5.23091
-5.23063
-5.23042
-5.23026
-5.23015
-5.23007
-5.23001
-5.22997
-5.22994
-5.22992
-5.22991
-5.22991
-5.22991
-5.29529
-5.29488
-5.29455
-5.29429
-5.29409
-5.29393
-5.29381
-5.29371
-5.29365
-5.2936
-5.29357
-5.29355
-5.29354
-5.29353
-5.29353
-5.35861
-5.35828
-5.35799
-5.35773
-5.35749
-5.35729
-5.35711
-5.35696
-5.35685
-5.35677
-5.35671
-5.35667
-5.35665
-5.35664
-5.35663
-5.42186
-5.42165
-5.42143
-5.42118
-5.42091
-5.42059
-5.42022
-5.41984
-5.41954
-5.41931
-5.41915
-5.41904
-5.41898
-5.41894
-5.41893
-5.48516
-5.48515
-5.48513
-5.48513
-5.48512
-5.48509
-5.48429
-5.48232
-5.48109
-5.4803
-5.4798
-5.47949
-5.4793
-5.4792
-5.47916
-5.53421
-5.5342
-5.53418
-5.53418
-5.53418
-5.53417
-5.53417
-5.53417
-5.53417
-5.53417
-5.53417
-5.5339
-5.53374
-5.53366
-5.53362
-5.58326
-5.58324
-5.58323
-5.58322
-5.58322
-5.58322
-5.58322
-5.58322
-5.58322
-5.58322
-5.58322
-5.5832
-5.58322
-5.58322
-5.58321
-5.63234
-5.63232
-5.6323
-5.63229
-5.63228
-5.63228
-5.63227
-5.63227
-5.63227
-5.63227
-5.63226
-5.63226
-5.63226
-5.63226
-5.63226
-5.68142
-5.6814
-5.68138
-5.68136
-5.68135
-5.68134
-5.68134
-5.68133
-5.68133
-5.68133
-5.68132
-5.68132
-5.68132
-5.68132
-5.68132
-5.73048
-5.73047
-5.73045
-5.73043
-5.73042
-5.73041
-5.73041
-5.7304
-5.7304
-5.73039
-5.73039
-5.73039
-5.73039
-5.73039
-5.73039
-5.77954
-5.77952
-5.77951
-5.7795
-5.77949
-5.77948
-5.77948
-5.77947
-5.77947
-5.77947
-5.77946
-5.77946
-5.77946
-5.77946
-5.77946
-5.82859
-5.82857
-5.82857
-5.82856
-5.82855
-5.82855
-5.82854
-5.82854
-5.82853
-5.82853
-5.82853
-5.82853
-5.82853
-5.82853
-5.82853
-5.87763
-5.87763
-5.87762
-5.87762
-5.87761
-5.87761
-5.87761
-5.8776
-5.8776
-5.87759
-5.87759
-5.87759
-5.87759
-5.87759
-5.87759
-5.92669
-5.92668
-5.92668
-5.92668
-5.92667
-5.92667
-5.92666
-5.92666
-5.92666
-5.92665
-5.92665
-5.92665
-5.92665
-5.92665
-5.92665
-5.97575
-5.97574
-5.97573
-5.97573
-5.97573
-5.97572
-5.97572
-5.97571
-5.97571
-5.97571
-5.97571
-5.97571
-5.9757
-5.9757
-5.9757
-6.0248
-6.02479
-6.02478
-6.02478
-6.02478
-6.02478
-6.02477
-6.02477
-6.02477
-6.02477
-6.02477
-6.02476
-6.02476
-6.02476
-6.02476
-6.07385
-6.07384
-6.07383
-6.07383
-6.07382
-6.07382
-6.07382
-6.07382
-6.07382
-6.07381
-6.07381
-6.07381
-6.07381
-6.07381
-6.07381
-6.1229
-6.12289
-6.12288
-6.12288
-6.12287
-6.12287
-6.12287
-6.12287
-6.12287
-6.12287
-6.12287
-6.12287
-6.12287
-6.12287
-6.12287
-6.17195
-6.17194
-6.17193
-6.17192
-6.17192
-6.17191
-6.17191
-6.17191
-6.1719
-6.1719
-6.1719
-6.1719
-6.1719
-6.1719
-6.1719
-6.22099
-6.22098
-6.22097
-6.22097
-6.22096
-6.22096
-6.22096
-6.22096
-6.22096
-6.22096
-6.22097
-6.22098
-6.22099
-6.221
-6.221
-3.69966
-3.69459
-3.69474
-3.69695
-3.69964
-3.70213
-3.70419
-3.70578
-3.70697
-3.70781
-3.70839
-3.70877
-3.709
-3.70912
-3.70917
-3.77577
-3.7698
-3.76846
-3.76918
-3.77062
-3.77213
-3.77345
-3.7745
-3.7753
-3.77588
-3.77628
-3.77655
-3.77671
-3.77679
-3.77683
-3.86727
-3.86049
-3.85755
-3.85658
-3.85653
-3.85683
-3.85723
-3.8576
-3.85791
-3.85814
-3.85831
-3.85842
-3.85849
-3.85853
-3.85854
-3.9638
-3.95676
-3.95283
-3.95069
-3.94954
-3.94893
-3.94861
-3.94844
-3.94836
-3.94832
-3.9483
-3.94829
-3.94828
-3.94828
-3.94828
-4.05954
-4.05277
-4.04849
-4.04578
-4.04405
-4.04293
-4.0422
-4.04172
-4.0414
-4.04119
-4.04105
-4.04097
-4.04092
-4.04089
-4.04088
-4.15203
-4.14583
-4.14167
-4.13884
-4.13692
-4.13561
-4.1347
-4.13408
-4.13366
-4.13338
-4.13319
-4.13307
-4.133
-4.13296
-4.13294
-4.24055
-4.23508
-4.23126
-4.22858
-4.22671
-4.22539
-4.22446
-4.22382
-4.22338
-4.22308
-4.22288
-4.22275
-4.22267
-4.22263
-4.22262
-4.32519
-4.32044
-4.31707
-4.31466
-4.31295
-4.31173
-4.31087
-4.31026
-4.30984
-4.30956
-4.30937
-4.30924
-4.30917
-4.30913
-4.30911
-4.40629
-4.40224
-4.39932
-4.39722
-4.39571
-4.39463
-4.39386
-4.39332
-4.39294
-4.39269
-4.39251
-4.3924
-4.39234
-4.3923
-4.39229
-4.48431
-4.48088
-4.47839
-4.47658
-4.47528
-4.47435
-4.47368
-4.47321
-4.47288
-4.47265
-4.4725
-4.47241
-4.47235
-4.47232
-4.47231
-4.55968
-4.55678
-4.55467
-4.55314
-4.55203
-4.55123
-4.55066
-4.55026
-4.54997
-4.54978
-4.54965
-4.54957
-4.54952
-4.5495
-4.54948
-4.63279
-4.63035
-4.62857
-4.62727
-4.62633
-4.62566
-4.62517
-4.62483
-4.62459
-4.62443
-4.62432
-4.62425
-4.62421
-4.62419
-4.62418
-4.70398
-4.70193
-4.70043
-4.69934
-4.69854
-4.69797
-4.69757
-4.69728
-4.69708
-4.69694
-4.69685
-4.69679
-4.69675
-4.69674
-4.69673
-4.77354
-4.77182
-4.77056
-4.76964
-4.76898
-4.7685
-4.76816
-4.76791
-4.76775
-4.76763
-4.76755
-4.7675
-4.76747
-4.76746
-4.76745
-4.84174
-4.84029
-4.83924
-4.83847
-4.83791
-4.83751
-4.83722
-4.83702
-4.83688
-4.83678
-4.83671
-4.83667
-4.83665
-4.83664
-4.83663
-4.90878
-4.90757
-4.90668
-4.90604
-4.90557
-4.90524
-4.905
-4.90483
-4.90471
-4.90463
-4.90457
-4.90454
-4.90452
-4.90451
-4.9045
-4.97485
-4.97384
-4.9731
-4.97256
-4.97217
-4.97189
-4.97169
-4.97155
-4.97145
-4.97139
-4.97134
-4.97131
-4.9713
-4.97129
-4.97128
-5.04012
-5.03927
-5.03865
-5.03821
-5.03788
-5.03765
-5.03748
-5.03736
-5.03728
-5.03722
-5.03719
-5.03716
-5.03715
-5.03714
-5.03714
-5.10471
-5.10401
-5.1035
-5.10312
-5.10285
-5.10266
-5.10252
-5.10242
-5.10235
-5.1023
-5.10227
-5.10225
-5.10224
-5.10223
-5.10223
-5.16877
-5.16819
-5.16776
-5.16745
-5.16722
-5.16705
-5.16693
-5.16684
-5.16678
-5.16674
-5.16672
-5.1667
-5.16669