/*--------------------------------*- C++ -*----------------------------------*\
  =========                 |
  \\      /  F ield         | OpenFOAM: The Open Source CFD Toolbox
   \\    /   O peration     | Website:  https://openfoam.org
    \\  /    A nd           | Version:  6
     \\/     M anipulation  |
\*---------------------------------------------------------------------------*/
FoamFile
{
    version     2.0;
    format      ascii;
    class       volScalarField;
    location    "2239.98991017056005";
    object      p_rgh;
}
// * * * * * * * * * * * * * * * * * * * * * * * * * * * * * * * * * * * * * //

dimensions      [0 2 -2 0 0 0 0];

internalField   nonuniform List<scalar> 
120400
(
0.0245251
-1.76485
-2.49366
-2.84382
-3.03332
-3.14461
-3.21357
-3.25771
-3.28644
-3.30518
-3.31728
-3.32487
-3.32938
-3.33177
-3.33273
-2.71202
-2.88213
-3.0459
-3.16275
-3.24212
-3.29577
-3.33214
-3.35685
-3.37356
-3.38476
-3.3921
-3.39676
-3.39955
-3.40103
-3.40162
-3.33516
-3.34799
-3.38005
-3.41167
-3.43756
-3.45726
-3.47171
-3.48206
-3.48931
-3.49429
-3.4976
-3.49972
-3.501
-3.50168
-3.50196
-3.57609
-3.56921
-3.57195
-3.578
-3.58436
-3.5899
-3.59431
-3.59763
-3.60004
-3.60172
-3.60286
-3.6036
-3.60404
-3.60428
-3.60437
-3.70873
-3.69944
-3.69528
-3.69384
-3.69367
-3.694
-3.69448
-3.69492
-3.69529
-3.69556
-3.69575
-3.69588
-3.69595
-3.696
-3.69601
-3.7973
-3.78865
-3.78321
-3.77981
-3.77768
-3.77633
-3.77546
-3.77489
-3.77452
-3.77427
-3.77411
-3.77401
-3.77395
-3.77391
-3.7739
-3.86308
-3.85568
-3.85052
-3.84694
-3.84445
-3.84272
-3.84151
-3.84067
-3.84009
-3.8397
-3.83944
-3.83927
-3.83917
-3.83912
-3.8391
-3.91516
-3.90901
-3.90454
-3.90132
-3.899
-3.89734
-3.89616
-3.89533
-3.89476
-3.89436
-3.8941
-3.89393
-3.89383
-3.89377
-3.89375
-3.95814
-3.95309
-3.94935
-3.9466
-3.9446
-3.94315
-3.94212
-3.94138
-3.94087
-3.94052
-3.94029
-3.94014
-3.94004
-3.94
-3.93997
-3.99465
-3.99051
-3.98742
-3.98513
-3.98346
-3.98224
-3.98137
-3.98075
-3.98032
-3.98002
-3.97982
-3.97969
-3.97962
-3.97958
-3.97956
-4.02634
-4.02295
-4.02041
-4.01852
-4.01714
-4.01613
-4.01541
-4.01489
-4.01453
-4.01429
-4.01412
-4.01402
-4.01395
-4.01392
-4.0139
-4.05433
-4.05155
-4.04946
-4.04791
-4.04677
-4.04594
-4.04534
-4.04492
-4.04462
-4.04442
-4.04429
-4.0442
-4.04415
-4.04412
-4.04411
-4.07942
-4.07713
-4.07541
-4.07413
-4.07319
-4.07251
-4.07202
-4.07167
-4.07143
-4.07126
-4.07115
-4.07108
-4.07104
-4.07102
-4.07101
-4.10218
-4.10029
-4.09887
-4.09782
-4.09705
-4.09649
-4.09609
-4.0958
-4.0956
-4.09547
-4.09537
-4.09532
-4.09528
-4.09526
-4.09525
-4.12308
-4.12151
-4.12034
-4.11947
-4.11884
-4.11838
-4.11804
-4.11781
-4.11765
-4.11753
-4.11746
-4.11741
-4.11738
-4.11737
-4.11736
-4.14245
-4.14116
-4.14019
-4.13947
-4.13895
-4.13857
-4.13829
-4.1381
-4.13797
-4.13787
-4.13781
-4.13777
-4.13775
-4.13774
-4.13773
-4.16059
-4.15952
-4.15872
-4.15812
-4.15769
-4.15738
-4.15715
-4.15699
-4.15688
-4.15681
-4.15676
-4.15673
-4.15671
-4.1567
-4.15669
-4.17771
-4.17683
-4.17617
-4.17568
-4.17532
-4.17506
-4.17487
-4.17474
-4.17465
-4.17459
-4.17455
-4.17452
-4.17451
-4.1745
-4.17449
-4.19403
-4.1933
-4.19275
-4.19234
-4.19204
-4.19182
-4.19167
-4.19156
-4.19148
-4.19143
-4.1914
-4.19137
-4.19136
-4.19135
-4.19135
-4.20969
-4.20909
-4.20863
-4.20829
-4.20803
-4.20785
-4.20772
-4.20762
-4.20755
-4.20751
-4.20748
-4.20746
-4.20745
-4.20744
-4.20744
-4.22486
-4.22436
-4.22397
-4.22367
-4.22344
-4.22328
-4.22316
-4.22307
-4.22301
-4.22296
-4.22293
-4.22292
-4.2229
-4.2229
-4.2229
-4.23967
-4.23925
-4.23891
-4.23863
-4.23841
-4.23824
-4.23811
-4.23801
-4.23793
-4.23788
-4.23785
-4.23783
-4.23781
-4.2378
-4.2378
-4.25428
-4.25393
-4.25363
-4.25335
-4.25309
-4.25287
-4.25267
-4.25251
-4.25239
-4.2523
-4.25224
-4.2522
-4.25217
-4.25216
-4.25215
-4.26882
-4.2686
-4.26836
-4.26809
-4.26779
-4.26743
-4.26703
-4.26663
-4.2663
-4.26606
-4.26589
-4.26578
-4.26571
-4.26568
-4.26566
-4.28342
-4.28341
-4.2834
-4.28339
-4.28337
-4.2833
-4.28239
-4.28035
-4.27907
-4.27826
-4.27775
-4.27742
-4.27723
-4.27712
-4.27708
-4.28342
-4.28341
-4.2834
-4.28339
-4.28338
-4.28336
-4.28335
-4.28333
-4.28331
-4.28331
-4.28335
-4.28305
-4.28288
-4.28278
-4.28275
-4.28341
-4.2834
-4.28339
-4.28339
-4.28339
-4.28339
-4.28339
-4.28338
-4.28338
-4.28338
-4.28337
-4.28314
-4.28327
-4.28329
-4.28329
-4.28343
-4.28341
-4.2834
-4.28339
-4.28338
-4.28336
-4.28335
-4.28333
-4.28332
-4.28332
-4.28331
-4.28331
-4.28331
-4.28331
-4.28331
-4.28346
-4.28343
-4.28341
-4.28339
-4.28337
-4.28335
-4.28333
-4.28331
-4.2833
-4.2833
-4.28329
-4.28329
-4.28329
-4.28328
-4.28328
-4.28347
-4.28345
-4.28343
-4.28341
-4.28338
-4.28336
-4.28334
-4.28332
-4.28331
-4.2833
-4.2833
-4.28329
-4.28329
-4.28329
-4.28329
-4.28349
-4.28347
-4.28345
-4.28343
-4.28341
-4.28339
-4.28338
-4.28336
-4.28335
-4.28334
-4.28334
-4.28333
-4.28333
-4.28333
-4.28333
-4.28352
-4.28349
-4.28347
-4.28345
-4.28344
-4.28342
-4.28341
-4.2834
-4.2834
-4.28339
-4.28339
-4.28339
-4.28339
-4.28339
-4.28339
-4.28354
-4.28353
-4.2835
-4.28349
-4.28347
-4.28346
-4.28344
-4.28343
-4.28343
-4.28342
-4.28342
-4.28342
-4.28341
-4.28341
-4.28341
-4.28356
-4.28355
-4.28354
-4.28352
-4.2835
-4.28349
-4.28348
-4.28347
-4.28347
-4.28346
-4.28346
-4.28345
-4.28345
-4.28345
-4.28345
-4.28356
-4.28356
-4.28355
-4.28354
-4.28353
-4.28351
-4.2835
-4.28349
-4.28349
-4.28348
-4.28348
-4.28348
-4.28348
-4.28348
-4.28348
-4.28355
-4.28355
-4.28354
-4.28354
-4.28353
-4.28352
-4.28351
-4.28351
-4.2835
-4.2835
-4.2835
-4.2835
-4.28349
-4.28349
-4.28349
-4.28354
-4.28353
-4.28353
-4.28352
-4.28352
-4.28351
-4.28351
-4.28351
-4.2835
-4.2835
-4.2835
-4.2835
-4.2835
-4.2835
-4.2835
-4.28353
-4.28352
-4.28351
-4.28351
-4.28351
-4.2835
-4.2835
-4.2835
-4.2835
-4.2835
-4.2835
-4.2835
-4.2835
-4.2835
-4.2835
-4.28352
-4.28351
-4.28351
-4.2835
-4.28349
-4.28349
-4.28349
-4.28349
-4.28348
-4.28348
-4.28348
-4.28348
-4.28348
-4.28348
-4.28348
-4.28351
-4.28351
-4.2835
-4.28349
-4.28349
-4.28348
-4.28348
-4.28348
-4.28349
-4.28349
-4.2835
-4.28351
-4.28352
-4.28352
-4.28353
-2.3712
-2.6443
-2.88634
-3.05095
-3.15884
-3.22984
-3.27702
-3.30859
-3.32972
-3.34375
-3.3529
-3.35868
-3.36212
-3.36395
-3.36468
-3.0523
-3.10553
-3.18598
-3.25555
-3.30822
-3.34624
-3.37312
-3.39185
-3.40474
-3.41345
-3.41921
-3.42287
-3.42506
-3.42623
-3.42669
-3.40597
-3.40881
-3.42806
-3.44978
-3.46878
-3.4838
-3.49508
-3.50328
-3.50907
-3.51306
-3.51573
-3.51744
-3.51846
-3.51901
-3.51923
-3.59847
-3.59079
-3.59143
-3.59539
-3.60005
-3.60428
-3.60771
-3.61034
-3.61225
-3.61359
-3.6145
-3.61508
-3.61543
-3.61562
-3.61569
-3.71868
-3.70943
-3.7049
-3.703
-3.70239
-3.70236
-3.70255
-3.70278
-3.70298
-3.70314
-3.70325
-3.70332
-3.70336
-3.70339
-3.70339
-3.8028
-3.79423
-3.78873
-3.78524
-3.783
-3.78154
-3.78059
-3.77995
-3.77953
-3.77924
-3.77905
-3.77893
-3.77886
-3.77882
-3.7788
-3.86654
-3.85919
-3.85403
-3.85043
-3.84792
-3.84616
-3.84493
-3.84407
-3.84347
-3.84307
-3.8428
-3.84262
-3.84252
-3.84246
-3.84243
-3.91752
-3.91139
-3.90693
-3.9037
-3.90138
-3.89972
-3.89853
-3.8977
-3.89711
-3.89671
-3.89645
-3.89628
-3.89617
-3.89612
-3.89609
-3.95984
-3.95479
-3.95105
-3.9483
-3.9463
-3.94486
-3.94382
-3.94309
-3.94257
-3.94222
-3.94198
-3.94183
-3.94174
-3.94169
-3.94167
-3.99591
-3.99177
-3.98868
-3.98639
-3.98472
-3.98351
-3.98263
-3.98201
-3.98158
-3.98128
-3.98108
-3.98095
-3.98088
-3.98083
-3.98082
-4.02731
-4.02391
-4.02137
-4.01948
-4.0181
-4.01709
-4.01637
-4.01585
-4.01549
-4.01525
-4.01508
-4.01498
-4.01491
-4.01488
-4.01486
-4.0551
-4.0523
-4.05021
-4.04866
-4.04752
-4.04669
-4.04609
-4.04567
-4.04537
-4.04517
-4.04503
-4.04495
-4.0449
-4.04487
-4.04485
-4.08003
-4.07773
-4.076
-4.07473
-4.07379
-4.07311
-4.07262
-4.07227
-4.07203
-4.07186
-4.07175
-4.07168
-4.07163
-4.07161
-4.0716
-4.10269
-4.10079
-4.09936
-4.09831
-4.09753
-4.09697
-4.09657
-4.09629
-4.09609
-4.09595
-4.09586
-4.0958
-4.09577
-4.09575
-4.09574
-4.1235
-4.12192
-4.12075
-4.11988
-4.11924
-4.11878
-4.11845
-4.11821
-4.11805
-4.11793
-4.11786
-4.11781
-4.11778
-4.11777
-4.11776
-4.14281
-4.1415
-4.14053
-4.13981
-4.13928
-4.1389
-4.13863
-4.13844
-4.1383
-4.13821
-4.13815
-4.13811
-4.13809
-4.13808
-4.13807
-4.16089
-4.15981
-4.15901
-4.15841
-4.15798
-4.15766
-4.15744
-4.15728
-4.15717
-4.1571
-4.15705
-4.15701
-4.15699
-4.15698
-4.15698
-4.17797
-4.17708
-4.17642
-4.17592
-4.17557
-4.17531
-4.17512
-4.17499
-4.1749
-4.17484
-4.1748
-4.17477
-4.17476
-4.17475
-4.17474
-4.19425
-4.19351
-4.19296
-4.19255
-4.19226
-4.19204
-4.19188
-4.19178
-4.1917
-4.19165
-4.19161
-4.19159
-4.19158
-4.19157
-4.19157
-4.20988
-4.20927
-4.20881
-4.20847
-4.20822
-4.20803
-4.2079
-4.20781
-4.20774
-4.2077
-4.20767
-4.20765
-4.20764
-4.20763
-4.20763
-4.22501
-4.22451
-4.22412
-4.22383
-4.2236
-4.22344
-4.22332
-4.22323
-4.22317
-4.22313
-4.2231
-4.22308
-4.22307
-4.22306
-4.22306
-4.23979
-4.23937
-4.23904
-4.23876
-4.23855
-4.23838
-4.23825
-4.23815
-4.23808
-4.23803
-4.238
-4.23797
-4.23796
-4.23795
-4.23795
-4.25436
-4.25402
-4.25372
-4.25345
-4.2532
-4.25298
-4.25279
-4.25264
-4.25252
-4.25243
-4.25237
-4.25233
-4.25231
-4.25229
-4.25229
-4.26887
-4.26865
-4.26841
-4.26816
-4.26787
-4.26753
-4.26715
-4.26675
-4.26643
-4.2662
-4.26603
-4.26592
-4.26585
-4.26582
-4.2658
-4.28343
-4.28341
-4.28339
-4.28339
-4.28338
-4.28333
-4.2826
-4.28053
-4.27923
-4.27841
-4.27789
-4.27756
-4.27737
-4.27727
-4.27723
-4.28343
-4.28341
-4.28339
-4.28339
-4.28338
-4.28337
-4.28335
-4.28334
-4.28332
-4.28332
-4.28336
-4.28308
-4.28291
-4.28283
-4.28279
-4.28341
-4.28339
-4.28339
-4.28339
-4.28339
-4.28339
-4.28338
-4.28338
-4.28338
-4.28338
-4.28337
-4.28318
-4.28329
-4.28331
-4.2833
-4.28343
-4.28342
-4.2834
-4.28339
-4.28338
-4.28337
-4.28335
-4.28334
-4.28333
-4.28332
-4.28332
-4.28332
-4.28332
-4.28332
-4.28332
-4.28346
-4.28344
-4.28342
-4.2834
-4.28338
-4.28336
-4.28334
-4.28333
-4.28332
-4.28331
-4.28331
-4.28331
-4.28331
-4.2833
-4.2833
-4.28349
-4.28346
-4.28343
-4.28341
-4.28339
-4.28338
-4.28336
-4.28335
-4.28334
-4.28333
-4.28333
-4.28332
-4.28332
-4.28332
-4.28332
-4.28349
-4.28347
-4.28345
-4.28343
-4.28341
-4.2834
-4.28339
-4.28338
-4.28337
-4.28336
-4.28336
-4.28336
-4.28336
-4.28335
-4.28335
-4.2835
-4.28348
-4.28346
-4.28345
-4.28344
-4.28342
-4.28341
-4.28341
-4.2834
-4.28339
-4.28339
-4.28339
-4.28339
-4.28339
-4.28339
-4.28353
-4.28351
-4.28349
-4.28347
-4.28346
-4.28345
-4.28344
-4.28343
-4.28342
-4.28342
-4.28342
-4.28342
-4.28342
-4.28342
-4.28341
-4.28355
-4.28353
-4.28351
-4.2835
-4.28349
-4.28347
-4.28347
-4.28346
-4.28345
-4.28345
-4.28345
-4.28345
-4.28345
-4.28344
-4.28344
-4.28355
-4.28355
-4.28353
-4.28352
-4.28351
-4.2835
-4.28349
-4.28348
-4.28348
-4.28347
-4.28347
-4.28347
-4.28347
-4.28347
-4.28347
-4.28355
-4.28354
-4.28354
-4.28353
-4.28352
-4.28351
-4.28351
-4.2835
-4.2835
-4.28349
-4.28349
-4.28349
-4.28349
-4.28349
-4.28349
-4.28353
-4.28353
-4.28353
-4.28352
-4.28351
-4.28351
-4.2835
-4.2835
-4.2835
-4.2835
-4.2835
-4.2835
-4.2835
-4.28349
-4.2835
-4.28353
-4.28352
-4.28351
-4.28351
-4.28351
-4.2835
-4.2835
-4.2835
-4.2835
-4.2835
-4.2835
-4.2835
-4.2835
-4.28351
-4.2835
-4.28352
-4.28352
-4.28351
-4.2835
-4.28349
-4.28349
-4.28349
-4.28348
-4.28348
-4.28348
-4.28348
-4.28348
-4.28348
-4.28348
-4.28348
-4.28352
-4.28351
-4.2835
-4.2835
-4.28349
-4.28348
-4.28348
-4.28348
-4.28348
-4.28349
-4.2835
-4.2835
-4.28351
-4.28352
-4.28353
-3.08094
-3.13417
-3.21082
-3.27653
-3.32616
-3.36197
-3.38729
-3.40495
-3.4171
-3.42534
-3.43077
-3.43424
-3.43631
-3.43742
-3.43787
-3.31044
-3.32383
-3.35654
-3.38968
-3.41725
-3.43842
-3.45401
-3.4652
-3.47305
-3.47843
-3.48201
-3.48431
-3.48569
-3.48642
-3.48672
-3.50428
-3.50115
-3.50934
-3.52069
-3.53149
-3.54046
-3.5474
-3.55256
-3.55625
-3.55882
-3.56055
-3.56166
-3.56233
-3.56269
-3.56284
-3.64231
-3.63416
-3.63255
-3.63391
-3.63625
-3.63862
-3.64066
-3.64226
-3.64345
-3.6443
-3.64488
-3.64525
-3.64547
-3.64559
-3.64564
-3.74159
-3.73268
-3.72789
-3.72547
-3.72432
-3.72382
-3.72363
-3.72358
-3.72358
-3.72359
-3.72361
-3.72362
-3.72363
-3.72363
-3.72363
-3.81638
-3.80817
-3.80281
-3.79932
-3.79703
-3.79552
-3.79451
-3.79382
-3.79336
-3.79305
-3.79285
-3.79272
-3.79264
-3.79259
-3.79258
-3.87535
-3.86826
-3.86328
-3.85979
-3.85734
-3.85562
-3.85442
-3.85358
-3.853
-3.8526
-3.85234
-3.85217
-3.85206
-3.85201
-3.85198
-3.92361
-3.91766
-3.91333
-3.91021
-3.90797
-3.90636
-3.90521
-3.90441
-3.90384
-3.90346
-3.9032
-3.90304
-3.90294
-3.90288
-3.90286
-3.96423
-3.9593
-3.95566
-3.95299
-3.95105
-3.94965
-3.94865
-3.94794
-3.94745
-3.94711
-3.94688
-3.94673
-3.94665
-3.9466
-3.94658
-3.99919
-3.99512
-3.99209
-3.98987
-3.98824
-3.98706
-3.98621
-3.98561
-3.98519
-3.9849
-3.98471
-3.98458
-3.98451
-3.98447
-3.98445
-4.02982
-4.02646
-4.02396
-4.02211
-4.02076
-4.01978
-4.01908
-4.01858
-4.01823
-4.01799
-4.01783
-4.01772
-4.01766
-4.01763
-4.01761
-4.05705
-4.05428
-4.05222
-4.05069
-4.04957
-4.04876
-4.04818
-4.04777
-4.04748
-4.04728
-4.04715
-4.04706
-4.04701
-4.04698
-4.04697
-4.08158
-4.07929
-4.07759
-4.07632
-4.0754
-4.07473
-4.07425
-4.07391
-4.07367
-4.07351
-4.0734
-4.07333
-4.07329
-4.07327
-4.07326
-4.10393
-4.10203
-4.10062
-4.09958
-4.09882
-4.09826
-4.09787
-4.09759
-4.09739
-4.09726
-4.09717
-4.09711
-4.09708
-4.09706
-4.09705
-4.1245
-4.12293
-4.12176
-4.1209
-4.12027
-4.11981
-4.11949
-4.11926
-4.1191
-4.11899
-4.11891
-4.11887
-4.11884
-4.11882
-4.11882
-4.14363
-4.14232
-4.14136
-4.14064
-4.14012
-4.13975
-4.13948
-4.13929
-4.13915
-4.13906
-4.139
-4.13896
-4.13894
-4.13893
-4.13892
-4.16156
-4.16048
-4.15968
-4.15909
-4.15866
-4.15835
-4.15813
-4.15797
-4.15787
-4.15779
-4.15774
-4.15771
-4.15769
-4.15768
-4.15768
-4.17853
-4.17763
-4.17697
-4.17648
-4.17613
-4.17587
-4.17569
-4.17556
-4.17547
-4.17541
-4.17536
-4.17534
-4.17532
-4.17531
-4.17531
-4.1947
-4.19396
-4.19341
-4.19301
-4.19271
-4.1925
-4.19235
-4.19224
-4.19217
-4.19211
-4.19208
-4.19206
-4.19205
-4.19204
-4.19204
-4.21025
-4.20964
-4.20918
-4.20884
-4.20859
-4.20841
-4.20828
-4.20819
-4.20812
-4.20808
-4.20805
-4.20803
-4.20802
-4.20801
-4.20801
-4.22531
-4.2248
-4.22441
-4.22412
-4.2239
-4.22374
-4.22362
-4.22354
-4.22348
-4.22343
-4.22341
-4.22339
-4.22338
-4.22337
-4.22337
-4.24001
-4.23959
-4.23926
-4.23899
-4.23878
-4.23861
-4.23848
-4.23839
-4.23832
-4.23827
-4.23823
-4.23821
-4.2382
-4.23819
-4.23819
-4.25451
-4.25418
-4.25388
-4.25361
-4.25337
-4.25315
-4.25297
-4.25282
-4.2527
-4.25261
-4.25256
-4.25252
-4.25249
-4.25248
-4.25247
-4.26895
-4.26873
-4.2685
-4.26825
-4.26796
-4.26763
-4.26725
-4.26686
-4.26655
-4.26631
-4.26615
-4.26604
-4.26597
-4.26594
-4.26592
-4.28343
-4.28341
-4.28339
-4.28339
-4.28339
-4.28334
-4.28251
-4.2805
-4.27925
-4.27845
-4.27794
-4.27762
-4.27743
-4.27733
-4.27729
-4.28343
-4.28341
-4.28339
-4.2834
-4.28339
-4.28338
-4.28337
-4.28336
-4.28335
-4.28334
-4.28338
-4.2831
-4.28293
-4.28285
-4.28281
-4.28342
-4.2834
-4.28339
-4.28339
-4.28339
-4.28339
-4.28339
-4.28339
-4.28339
-4.28338
-4.28338
-4.28326
-4.28333
-4.28334
-4.28334
-4.28344
-4.28342
-4.28341
-4.2834
-4.28339
-4.28338
-4.28337
-4.28336
-4.28335
-4.28335
-4.28335
-4.28335
-4.28335
-4.28335
-4.28335
-4.28348
-4.28346
-4.28343
-4.28341
-4.2834
-4.28339
-4.28337
-4.28336
-4.28336
-4.28335
-4.28335
-4.28335
-4.28335
-4.28335
-4.28334
-4.28349
-4.28347
-4.28345
-4.28343
-4.28341
-4.2834
-4.28339
-4.28338
-4.28338
-4.28337
-4.28337
-4.28337
-4.28337
-4.28337
-4.28337
-4.2835
-4.28348
-4.28346
-4.28344
-4.28343
-4.28342
-4.28342
-4.28341
-4.2834
-4.2834
-4.28339
-4.28339
-4.28339
-4.28339
-4.28339
-4.2835
-4.28348
-4.28347
-4.28346
-4.28344
-4.28344
-4.28343
-4.28342
-4.28342
-4.28342
-4.28341
-4.28341
-4.28341
-4.28341
-4.28341
-4.28351
-4.2835
-4.28349
-4.28347
-4.28346
-4.28345
-4.28345
-4.28344
-4.28344
-4.28343
-4.28343
-4.28343
-4.28343
-4.28343
-4.28343
-4.28353
-4.28352
-4.2835
-4.28349
-4.28348
-4.28347
-4.28346
-4.28346
-4.28345
-4.28345
-4.28345
-4.28345
-4.28345
-4.28345
-4.28345
-4.28354
-4.28353
-4.28352
-4.28351
-4.2835
-4.28349
-4.28348
-4.28348
-4.28347
-4.28347
-4.28347
-4.28347
-4.28347
-4.28347
-4.28347
-4.28354
-4.28353
-4.28353
-4.28352
-4.28351
-4.28351
-4.2835
-4.2835
-4.28349
-4.28349
-4.28349
-4.28349
-4.28348
-4.28348
-4.28349
-4.28353
-4.28353
-4.28352
-4.28352
-4.28351
-4.2835
-4.2835
-4.2835
-4.28349
-4.28349
-4.28349
-4.28349
-4.28349
-4.28349
-4.28349
-4.28353
-4.28352
-4.28351
-4.28351
-4.28351
-4.2835
-4.2835
-4.2835
-4.2835
-4.2835
-4.2835
-4.2835
-4.2835
-4.2835
-4.2835
-4.28353
-4.28352
-4.28351
-4.2835
-4.28349
-4.28349
-4.28349
-4.28348
-4.28348
-4.28348
-4.28348
-4.28348
-4.28348
-4.28348
-4.28348
-4.28352
-4.28351
-4.2835
-4.2835
-4.28349
-4.28348
-4.28348
-4.28348
-4.28348
-4.28349
-4.2835
-4.28351
-4.28351
-4.28352
-4.28353
-3.39222
-3.40167
-3.4258
-3.45061
-3.47148
-3.48765
-3.49965
-3.50831
-3.51441
-3.51862
-3.52143
-3.52323
-3.52432
-3.5249
-3.52514
-3.48819
-3.48821
-3.49949
-3.51327
-3.52584
-3.53605
-3.54387
-3.54963
-3.55375
-3.55661
-3.55853
-3.55977
-3.56052
-3.56092
-3.56109
-3.59826
-3.59238
-3.59401
-3.59849
-3.60344
-3.60786
-3.61142
-3.61414
-3.61612
-3.61752
-3.61847
-3.61909
-3.61946
-3.61966
-3.61974
-3.69403
-3.68591
-3.68278
-3.68217
-3.68265
-3.68349
-3.68434
-3.68506
-3.68562
-3.68603
-3.68631
-3.6865
-3.68661
-3.68667
-3.6867
-3.77218
-3.76385
-3.759
-3.75624
-3.75468
-3.7538
-3.7533
-3.753
-3.75283
-3.75272
-3.75266
-3.75262
-3.75259
-3.75258
-3.75258
-3.8358
-3.82817
-3.82309
-3.81972
-3.81746
-3.81595
-3.81492
-3.81422
-3.81374
-3.81342
-3.81321
-3.81308
-3.813
-3.81295
-3.81294
-3.88844
-3.8818
-3.87712
-3.87383
-3.87152
-3.86989
-3.86875
-3.86796
-3.86741
-3.86703
-3.86678
-3.86662
-3.86653
-3.86647
-3.86645
-3.93284
-3.92721
-3.92313
-3.92019
-3.91808
-3.91657
-3.9155
-3.91475
-3.91422
-3.91386
-3.91362
-3.91347
-3.91338
-3.91333
-3.9133
-3.97098
-3.96627
-3.96281
-3.96029
-3.95846
-3.95714
-3.95619
-3.95553
-3.95506
-3.95474
-3.95453
-3.95439
-3.95431
-3.95427
-3.95425
-4.00426
-4.00034
-3.99745
-3.99532
-3.99377
-3.99265
-3.99185
-3.99128
-3.99089
-3.99062
-3.99043
-3.99032
-3.99025
-3.99021
-3.99019
-4.03371
-4.03046
-4.02805
-4.02627
-4.02498
-4.02404
-4.02337
-4.02289
-4.02256
-4.02233
-4.02218
-4.02208
-4.02202
-4.02199
-4.02198
-4.06009
-4.05739
-4.05539
-4.05391
-4.05284
-4.05206
-4.0515
-4.0511
-4.05083
-4.05064
-4.05051
-4.05043
-4.05038
-4.05035
-4.05034
-4.08399
-4.08174
-4.08008
-4.07886
-4.07796
-4.07731
-4.07685
-4.07652
-4.07629
-4.07614
-4.07603
-4.07596
-4.07592
-4.0759
-4.07589
-4.10586
-4.10399
-4.10261
-4.10159
-4.10085
-4.10031
-4.09993
-4.09966
-4.09947
-4.09934
-4.09925
-4.0992
-4.09916
-4.09915
-4.09914
-4.12606
-4.12451
-4.12336
-4.12251
-4.1219
-4.12145
-4.12114
-4.12091
-4.12075
-4.12065
-4.12057
-4.12053
-4.1205
-4.12049
-4.12048
-4.14489
-4.1436
-4.14265
-4.14194
-4.14144
-4.14107
-4.1408
-4.14062
-4.14049
-4.1404
-4.14034
-4.14031
-4.14028
-4.14027
-4.14027
-4.16259
-4.16152
-4.16073
-4.16015
-4.15972
-4.15942
-4.1592
-4.15905
-4.15894
-4.15887
-4.15882
-4.15879
-4.15877
-4.15876
-4.15876
-4.17936
-4.17847
-4.17782
-4.17734
-4.17699
-4.17674
-4.17656
-4.17643
-4.17634
-4.17628
-4.17624
-4.17622
-4.1762
-4.17619
-4.17619
-4.19538
-4.19464
-4.1941
-4.1937
-4.19341
-4.1932
-4.19305
-4.19294
-4.19287
-4.19282
-4.19278
-4.19276
-4.19275
-4.19274
-4.19274
-4.21079
-4.21018
-4.20973
-4.20939
-4.20914
-4.20897
-4.20884
-4.20875
-4.20869
-4.20864
-4.20861
-4.2086
-4.20858
-4.20858
-4.20858
-4.22572
-4.22522
-4.22484
-4.22455
-4.22433
-4.22417
-4.22406
-4.22397
-4.22391
-4.22387
-4.22384
-4.22383
-4.22382
-4.22381
-4.22381
-4.24032
-4.23991
-4.23958
-4.23931
-4.2391
-4.23894
-4.23881
-4.23872
-4.23865
-4.2386
-4.23857
-4.23855
-4.23854
-4.23853
-4.23853
-4.25472
-4.25439
-4.25409
-4.25383
-4.25359
-4.25338
-4.2532
-4.25305
-4.25293
-4.25285
-4.25279
-4.25275
-4.25273
-4.25271
-4.25271
-4.26906
-4.26884
-4.26861
-4.26836
-4.26808
-4.26776
-4.26738
-4.267
-4.26669
-4.26646
-4.2663
-4.26619
-4.26613
-4.26609
-4.26608
-4.28343
-4.28341
-4.2834
-4.2834
-4.28339
-4.28335
-4.28256
-4.28055
-4.2793
-4.27851
-4.278
-4.27768
-4.2775
-4.27739
-4.27735
-4.28343
-4.28341
-4.2834
-4.2834
-4.2834
-4.28339
-4.28339
-4.28339
-4.28338
-4.28338
-4.28339
-4.28312
-4.28296
-4.28287
-4.28283
-4.28343
-4.2834
-4.28339
-4.28339
-4.28339
-4.28339
-4.28339
-4.28339
-4.28339
-4.28339
-4.28339
-4.28334
-4.28338
-4.28338
-4.28338
-4.28345
-4.28343
-4.28342
-4.28341
-4.2834
-4.28339
-4.28339
-4.28339
-4.28338
-4.28338
-4.28338
-4.28338
-4.28338
-4.28338
-4.28338
-4.28349
-4.28347
-4.28345
-4.28343
-4.28342
-4.28341
-4.2834
-4.2834
-4.28339
-4.28339
-4.28339
-4.28338
-4.28338
-4.28338
-4.28338
-4.2835
-4.28348
-4.28346
-4.28345
-4.28344
-4.28343
-4.28342
-4.28341
-4.28341
-4.2834
-4.2834
-4.2834
-4.2834
-4.2834
-4.2834
-4.2835
-4.28349
-4.28347
-4.28346
-4.28345
-4.28344
-4.28344
-4.28343
-4.28343
-4.28343
-4.28342
-4.28342
-4.28342
-4.28342
-4.28342
-4.2835
-4.28348
-4.28348
-4.28347
-4.28346
-4.28346
-4.28345
-4.28344
-4.28344
-4.28344
-4.28344
-4.28344
-4.28344
-4.28344
-4.28344
-4.28351
-4.28349
-4.28349
-4.28348
-4.28347
-4.28347
-4.28346
-4.28346
-4.28346
-4.28345
-4.28345
-4.28345
-4.28345
-4.28345
-4.28345
-4.28352
-4.28351
-4.2835
-4.28349
-4.28348
-4.28348
-4.28347
-4.28347
-4.28347
-4.28347
-4.28346
-4.28346
-4.28346
-4.28346
-4.28346
-4.28353
-4.28352
-4.28351
-4.2835
-4.28349
-4.28349
-4.28348
-4.28348
-4.28348
-4.28348
-4.28347
-4.28347
-4.28347
-4.28347
-4.28347
-4.28353
-4.28352
-4.28352
-4.28351
-4.28351
-4.2835
-4.2835
-4.28349
-4.28349
-4.28349
-4.28349
-4.28349
-4.28349
-4.28348
-4.28349
-4.28353
-4.28352
-4.28351
-4.28351
-4.2835
-4.2835
-4.28349
-4.28349
-4.28349
-4.28349
-4.28349
-4.28349
-4.28349
-4.28349
-4.28349
-4.28353
-4.28352
-4.28351
-4.28351
-4.2835
-4.2835
-4.2835
-4.2835
-4.2835
-4.2835
-4.2835
-4.2835
-4.2835
-4.2835
-4.2835
-4.28353
-4.28352
-4.28351
-4.2835
-4.28349
-4.28349
-4.28349
-4.28348
-4.28348
-4.28348
-4.28348
-4.28348
-4.28348
-4.28348
-4.28348
-4.28352
-4.28351
-4.2835
-4.2835
-4.28349
-4.28348
-4.28348
-4.28348
-4.28348
-4.28349
-4.2835
-4.2835
-4.28351
-4.28352
-4.28353
-3.56484
-3.56295
-3.56933
-3.5779
-3.58599
-3.59271
-3.59792
-3.60181
-3.6046
-3.60656
-3.60788
-3.60874
-3.60926
-3.60954
-3.60965
-3.61243
-3.60779
-3.61001
-3.61467
-3.61961
-3.62394
-3.62741
-3.63005
-3.63197
-3.63333
-3.63425
-3.63485
-3.63522
-3.63541
-3.63549
-3.67863
-3.67179
-3.67014
-3.67087
-3.67245
-3.67414
-3.67562
-3.6768
-3.6777
-3.67834
-3.67878
-3.67907
-3.67925
-3.67935
-3.67938
-3.74531
-3.73759
-3.73373
-3.732
-3.73135
-3.73121
-3.73128
-3.73142
-3.73156
-3.73167
-3.73176
-3.73182
-3.73185
-3.73187
-3.73188
-3.80569
-3.79809
-3.79341
-3.79055
-3.78879
-3.7877
-3.78701
-3.78657
-3.78629
-3.78611
-3.78599
-3.78592
-3.78587
-3.78585
-3.78584
-3.85851
-3.85155
-3.84687
-3.84372
-3.84159
-3.84013
-3.83914
-3.83846
-3.83799
-3.83768
-3.83748
-3.83735
-3.83727
-3.83723
-3.83721
-3.90438
-3.89828
-3.89399
-3.89097
-3.88885
-3.88736
-3.88632
-3.88559
-3.88508
-3.88474
-3.88451
-3.88437
-3.88428
-3.88423
-3.88421
-3.94439
-3.93917
-3.9354
-3.9327
-3.93077
-3.92939
-3.92841
-3.92773
-3.92725
-3.92692
-3.9267
-3.92657
-3.92648
-3.92644
-3.92642
-3.97957
-3.97515
-3.97193
-3.9696
-3.96791
-3.9667
-3.96583
-3.96522
-3.9648
-3.96451
-3.96431
-3.96419
-3.96411
-3.96407
-3.96406
-4.01078
-4.00708
-4.00436
-4.00238
-4.00094
-3.9999
-3.99916
-3.99863
-3.99826
-3.99801
-3.99785
-3.99774
-3.99767
-3.99764
-3.99762
-4.03875
-4.03565
-4.03337
-4.0317
-4.03049
-4.02961
-4.02898
-4.02854
-4.02823
-4.02802
-4.02787
-4.02778
-4.02773
-4.0277
-4.02769
-4.06405
-4.06146
-4.05955
-4.05815
-4.05713
-4.05639
-4.05587
-4.05549
-4.05523
-4.05506
-4.05494
-4.05486
-4.05482
-4.05479
-4.05478
-4.08713
-4.08496
-4.08337
-4.0822
-4.08135
-4.08073
-4.08029
-4.07998
-4.07976
-4.07962
-4.07952
-4.07945
-4.07942
-4.07939
-4.07939
-4.10837
-4.10656
-4.10523
-4.10425
-4.10354
-4.10303
-4.10266
-4.10241
-4.10222
-4.1021
-4.10202
-4.10197
-4.10193
-4.10192
-4.10191
-4.12809
-4.12658
-4.12547
-4.12465
-4.12406
-4.12363
-4.12333
-4.12311
-4.12296
-4.12286
-4.12279
-4.12275
-4.12272
-4.12271
-4.1227
-4.14654
-4.14528
-4.14435
-4.14367
-4.14318
-4.14282
-4.14257
-4.14239
-4.14226
-4.14218
-4.14212
-4.14209
-4.14206
-4.14205
-4.14205
-4.16393
-4.16288
-4.16211
-4.16154
-4.16113
-4.16084
-4.16063
-4.16048
-4.16038
-4.16031
-4.16026
-4.16023
-4.16021
-4.1602
-4.1602
-4.18045
-4.17957
-4.17893
-4.17846
-4.17812
-4.17788
-4.1777
-4.17758
-4.17749
-4.17744
-4.1774
-4.17737
-4.17736
-4.17735
-4.17735
-4.19625
-4.19553
-4.19499
-4.1946
-4.19432
-4.19411
-4.19397
-4.19387
-4.19379
-4.19375
-4.19371
-4.19369
-4.19368
-4.19367
-4.19367
-4.21148
-4.21088
-4.21043
-4.21011
-4.20987
-4.20969
-4.20957
-4.20948
-4.20942
-4.20937
-4.20935
-4.20933
-4.20932
-4.20931
-4.20931
-4.22626
-4.22576
-4.22539
-4.2251
-4.22489
-4.22474
-4.22462
-4.22454
-4.22448
-4.22444
-4.22442
-4.2244
-4.22439
-4.22438
-4.22438
-4.24072
-4.24031
-4.23998
-4.23972
-4.23951
-4.23935
-4.23923
-4.23914
-4.23907
-4.23903
-4.23899
-4.23897
-4.23896
-4.23896
-4.23895
-4.25498
-4.25465
-4.25436
-4.2541
-4.25387
-4.25366
-4.25349
-4.25334
-4.25323
-4.25314
-4.25309
-4.25305
-4.25303
-4.25301
-4.25301
-4.26919
-4.26897
-4.26875
-4.26851
-4.26823
-4.26791
-4.26754
-4.26717
-4.26686
-4.26663
-4.26647
-4.26637
-4.2663
-4.26627
-4.26625
-4.28344
-4.28342
-4.28341
-4.2834
-4.2834
-4.28336
-4.28257
-4.28059
-4.27936
-4.27858
-4.27808
-4.27776
-4.27757
-4.27747
-4.27743
-4.28344
-4.28342
-4.28341
-4.2834
-4.2834
-4.2834
-4.28339
-4.28339
-4.28339
-4.28339
-4.2834
-4.28313
-4.28297
-4.28288
-4.28285
-4.28344
-4.28341
-4.2834
-4.2834
-4.2834
-4.2834
-4.2834
-4.2834
-4.2834
-4.2834
-4.2834
-4.28337
-4.28339
-4.28339
-4.28339
-4.28347
-4.28344
-4.28343
-4.28342
-4.28341
-4.2834
-4.2834
-4.28339
-4.28339
-4.28339
-4.28339
-4.28339
-4.28339
-4.28339
-4.28339
-4.28349
-4.28347
-4.28345
-4.28344
-4.28343
-4.28342
-4.28341
-4.28341
-4.2834
-4.2834
-4.2834
-4.2834
-4.2834
-4.2834
-4.2834
-4.28351
-4.28349
-4.28347
-4.28346
-4.28345
-4.28344
-4.28343
-4.28343
-4.28342
-4.28342
-4.28342
-4.28342
-4.28342
-4.28342
-4.28341
-4.28351
-4.2835
-4.28349
-4.28347
-4.28346
-4.28346
-4.28345
-4.28345
-4.28344
-4.28344
-4.28344
-4.28344
-4.28344
-4.28344
-4.28344
-4.28351
-4.2835
-4.28349
-4.28348
-4.28348
-4.28347
-4.28347
-4.28346
-4.28346
-4.28346
-4.28346
-4.28346
-4.28345
-4.28345
-4.28345
-4.2835
-4.2835
-4.2835
-4.28349
-4.28349
-4.28348
-4.28348
-4.28348
-4.28347
-4.28347
-4.28347
-4.28347
-4.28347
-4.28347
-4.28347
-4.28351
-4.28351
-4.2835
-4.2835
-4.2835
-4.28349
-4.28349
-4.28348
-4.28348
-4.28348
-4.28348
-4.28348
-4.28348
-4.28348
-4.28348
-4.28352
-4.28351
-4.28351
-4.28351
-4.2835
-4.2835
-4.28349
-4.28349
-4.28348
-4.28348
-4.28348
-4.28348
-4.28348
-4.28348
-4.28348
-4.28352
-4.28351
-4.28351
-4.28351
-4.2835
-4.2835
-4.2835
-4.2835
-4.28349
-4.28349
-4.28349
-4.28349
-4.28349
-4.28349
-4.28349
-4.28352
-4.28352
-4.28351
-4.2835
-4.2835
-4.28349
-4.28349
-4.28349
-4.28349
-4.28349
-4.28349
-4.28349
-4.28349
-4.28349
-4.28349
-4.28353
-4.28352
-4.28351
-4.2835
-4.2835
-4.2835
-4.28349
-4.28349
-4.28349
-4.2835
-4.2835
-4.2835
-4.2835
-4.2835
-4.2835
-4.28353
-4.28351
-4.2835
-4.2835
-4.28349
-4.28349
-4.28348
-4.28348
-4.28348
-4.28348
-4.28348
-4.28348
-4.28348
-4.28348
-4.28348
-4.28352
-4.28351
-4.2835
-4.28349
-4.28349
-4.28348
-4.28348
-4.28348
-4.28348
-4.28349
-4.2835
-4.28351
-4.28351
-4.28352
-4.28353
-3.67514
-3.67007
-3.67022
-3.67243
-3.67511
-3.67761
-3.67966
-3.68126
-3.68244
-3.68328
-3.68386
-3.68424
-3.68447
-3.6846
-3.68465
-3.7022
-3.69622
-3.69488
-3.69561
-3.69704
-3.69855
-3.69987
-3.70093
-3.70173
-3.70231
-3.70271
-3.70297
-3.70313
-3.70322
-3.70325
-3.74465
-3.73787
-3.73493
-3.73396
-3.7339
-3.7342
-3.7346
-3.73497
-3.73528
-3.73552
-3.73568
-3.7358
-3.73587
-3.73591
-3.73592
-3.79212
-3.78509
-3.78116
-3.77901
-3.77786
-3.77725
-3.77693
-3.77677
-3.77668
-3.77664
-3.77662
-3.77661
-3.77661
-3.77661
-3.77661
-3.83881
-3.83204
-3.82777
-3.82506
-3.82333
-3.82221
-3.82147
-3.82099
-3.82067
-3.82046
-3.82033
-3.82025
-3.8202
-3.82017
-3.82016
-3.88225
-3.87606
-3.87189
-3.86907
-3.86715
-3.86583
-3.86493
-3.86431
-3.86389
-3.8636
-3.86341
-3.8633
-3.86322
-3.86319
-3.86317
-3.92173
-3.91625
-3.91243
-3.90976
-3.90788
-3.90656
-3.90564
-3.905
-3.90455
-3.90425
-3.90405
-3.90393
-3.90385
-3.90381
-3.90379
-3.95731
-3.95257
-3.94919
-3.94679
-3.94507
-3.94385
-3.94299
-3.94239
-3.94197
-3.94168
-3.94149
-3.94137
-3.9413
-3.94126
-3.94124
-3.98937
-3.98532
-3.9824
-3.9803
-3.97879
-3.97771
-3.97694
-3.97639
-3.97602
-3.97576
-3.97559
-3.97548
-3.97541
-3.97538
-3.97536
-4.01834
-4.0149
-4.01241
-4.01061
-4.00931
-4.00837
-4.0077
-4.00723
-4.0069
-4.00668
-4.00653
-4.00643
-4.00638
-4.00634
-4.00633
-4.04465
-4.04176
-4.03965
-4.03811
-4.037
-4.0362
-4.03563
-4.03523
-4.03495
-4.03476
-4.03463
-4.03455
-4.0345
-4.03447
-4.03446
-4.06871
-4.06627
-4.06449
-4.0632
-4.06226
-4.06158
-4.0611
-4.06076
-4.06052
-4.06035
-4.06024
-4.06018
-4.06013
-4.06011
-4.0601
-4.09085
-4.0888
-4.0873
-4.08621
-4.08542
-4.08485
-4.08444
-4.08415
-4.08395
-4.08382
-4.08372
-4.08367
-4.08363
-4.08361
-4.0836
-4.11137
-4.10964
-4.10839
-4.10747
-4.1068
-4.10632
-4.10598
-4.10574
-4.10557
-4.10545
-4.10538
-4.10533
-4.1053
-4.10528
-4.10528
-4.13051
-4.12907
-4.12801
-4.12724
-4.12668
-4.12628
-4.12599
-4.12579
-4.12565
-4.12555
-4.12549
-4.12545
-4.12542
-4.12541
-4.1254
-4.14851
-4.14729
-4.14641
-4.14576
-4.1453
-4.14496
-4.14472
-4.14455
-4.14443
-4.14435
-4.1443
-4.14426
-4.14424
-4.14423
-4.14423
-4.16553
-4.16451
-4.16377
-4.16324
-4.16285
-4.16257
-4.16237
-4.16222
-4.16213
-4.16206
-4.16202
-4.16199
-4.16197
-4.16196
-4.16196
-4.18174
-4.1809
-4.18028
-4.17983
-4.17951
-4.17927
-4.1791
-4.17899
-4.17891
-4.17885
-4.17881
-4.17879
-4.17877
-4.17877
-4.17876
-4.19729
-4.19659
-4.19607
-4.1957
-4.19543
-4.19523
-4.19509
-4.19499
-4.19492
-4.19488
-4.19485
-4.19483
-4.19481
-4.19481
-4.1948
-4.2123
-4.21172
-4.21129
-4.21097
-4.21074
-4.21057
-4.21045
-4.21037
-4.21031
-4.21027
-4.21024
-4.21022
-4.21021
-4.21021
-4.2102