/*--------------------------------*- C++ -*----------------------------------*\
  =========                 |
  \\      /  F ield         | OpenFOAM: The Open Source CFD Toolbox
   \\    /   O peration     | Website:  https://openfoam.org
    \\  /    A nd           | Version:  6
     \\/     M anipulation  |
\*---------------------------------------------------------------------------*/
FoamFile
{
    version     2.0;
    format      ascii;
    class       volScalarField;
    location    "2239.98991017056005";
    object      T;
}
// * * * * * * * * * * * * * * * * * * * * * * * * * * * * * * * * * * * * * //

dimensions      [0 0 0 1 0 0 0];

internalField   nonuniform List<scalar> 
120400
(
835.792
835.912
835.958
835.978
835.988
835.993
835.996
835.998
835.998
835.999
835.999
836
836
836
836
835.986
835.991
835.997
836
836.002
836.003
836.003
836.002
836.002
836.002
836.001
836.001
836.001
836
836
836.031
836.024
836.02
836.017
836.014
836.012
836.01
836.008
836.006
836.005
836.004
836.003
836.002
836.001
836
836.051
836.042
836.034
836.028
836.023
836.019
836.016
836.013
836.01
836.008
836.006
836.004
836.003
836.002
836.001
836.064
836.053
836.045
836.037
836.031
836.025
836.021
836.017
836.013
836.01
836.008
836.006
836.004
836.002
836.001
836.076
836.064
836.054
836.045
836.037
836.031
836.025
836.02
836.016
836.013
836.009
836.007
836.005
836.003
836.001
836.088
836.075
836.063
836.052
836.044
836.036
836.029
836.024
836.019
836.015
836.011
836.008
836.005
836.003
836.001
836.102
836.086
836.073
836.061
836.051
836.042
836.034
836.028
836.022
836.017
836.013
836.009
836.006
836.003
836.001
836.118
836.1
836.084
836.071
836.059
836.049
836.04
836.032
836.026
836.02
836.015
836.011
836.007
836.004
836.001
836.137
836.116
836.098
836.082
836.068
836.057
836.046
836.037
836.03
836.023
836.018
836.013
836.008
836.005
836.001
836.159
836.135
836.114
836.096
836.08
836.066
836.054
836.044
836.035
836.027
836.021
836.015
836.01
836.005
836.002
836.187
836.159
836.134
836.112
836.094
836.078
836.064
836.051
836.041
836.032
836.024
836.017
836.012
836.006
836.002
836.22
836.187
836.158
836.133
836.111
836.092
836.075
836.061
836.049
836.038
836.029
836.021
836.014
836.008
836.002
836.262
836.223
836.188
836.158
836.132
836.109
836.09
836.073
836.058
836.045
836.034
836.025
836.016
836.009
836.003
836.313
836.267
836.226
836.19
836.159
836.131
836.108
836.087
836.07
836.054
836.041
836.029
836.02
836.011
836.003
836.378
836.323
836.274
836.23
836.193
836.16
836.131
836.106
836.085
836.066
836.05
836.036
836.024
836.013
836.004
836.46
836.394
836.335
836.282
836.236
836.196
836.161
836.13
836.104
836.081
836.061
836.044
836.029
836.016
836.005
836.567
836.487
836.414
836.35
836.293
836.244
836.2
836.162
836.13
836.101
836.076
836.055
836.036
836.02
836.006
836.706
836.609
836.521
836.441
836.371
836.308
836.254
836.206
836.164
836.128
836.097
836.07
836.046
836.026
836.008
836.894
836.776
836.666
836.567
836.477
836.398
836.328
836.267
836.213
836.166
836.126
836.09
836.06
836.034
836.011
837.15
837.007
836.871
836.745
836.631
836.527
836.436
836.355
836.284
836.222
836.168
836.121
836.08
836.045
836.014
837.505
837.334
837.167
837.008
836.86
836.724
836.601
836.491
836.394
836.308
836.233
836.168
836.112
836.062
836.02
838.004
837.809
837.61
837.412
837.219
837.038
836.869
836.714
836.576
836.452
836.343
836.248
836.165
836.092
836.029
838.702
838.502
838.285
838.054
837.817
837.579
837.345
837.122
836.913
836.722
836.551
836.399
836.265
836.149
836.047
839.647
839.492
839.309
839.099
838.861
838.595
838.305
837.991
837.659
837.331
837.024
836.745
836.496
836.278
836.088
840.842
840.8
840.753
840.699
840.643
840.591
840.541
840.471
839.913
839.158
838.383
837.716
837.139
836.637
836.202
859.861
859.852
858.291
856.615
857.267
858.093
857.131
854.744
851.817
847.62
840.697
839.623
838.503
837.43
836.456
859.745
859.771
859.698
859.609
859.536
859.512
859.514
859.795
860.537
861.418
861.16
857.556
851.56
844.741
838.732
858.991
859.051
859.16
859.269
859.36
859.44
859.479
859.518
859.679
859.986
860.006
858.547
853.637
846.185
839.166
857.307
857.14
857.25
857.601
858.027
858.422
858.737
858.962
859.197
859.527
859.792
859.007
854.744
847.043
839.427
856.838
856.498
856.478
856.747
857.188
857.64
858.037
858.33
858.683
859.193
859.55
858.546
853.983
846.447
839.246
856.357
856.116
856.174
856.403
856.784
857.29
857.807
858.321
858.811
859.196
859.007
857.137
852.355
845.629
839.065
855.689
855.803
855.946
856.094
856.331
856.739
857.348
858.005
858.615
858.993
858.796
857.33
853.049
846.136
839.194
855.685
855.804
855.94
856.107
856.348
856.731
857.213
857.766
858.34
858.673
858.46
857.033
852.316
845.278
838.863
855.996
856.009
856.065
856.18
856.366
856.644
857.014
857.469
858.004
858.463
858.504
856.208
850.421
843.877
838.444
856.194
856.318
856.395
856.457
856.573
856.753
857.006
857.386
857.868
858.106
856.594
852.18
846.339
841.406
837.714
855.234
855.442
855.861
856.19
856.395
856.578
856.834
857.188
857.417
856.665
853.864
849.459
845.017
840.996
837.582
855.155
855.539
856.075
856.552
856.87
857.014
857.103
857.18
856.904
855.654
853.024
849.433
845.201
840.659
837.477
853.308
853.564
854.044
854.648
855.336
856
856.553
856.979
857.355
857.578
857.105
854.642
849.628
843.642
838.387
857.977
857.945
857.935
857.921
857.866
857.756
857.549
857.186
856.571
855.45
853.527
850.621
846.964
842.943
838.562
835.961
835.973
835.985
835.992
835.996
835.998
835.999
836
836
836
836
836
836
836
836
836.01
836.006
836.006
836.006
836.006
836.005
836.005
836.004
836.003
836.003
836.002
836.001
836.001
836.001
836
836.036
836.028
836.023
836.019
836.016
836.013
836.011
836.009
836.007
836.005
836.004
836.003
836.002
836.001
836
836.052
836.043
836.035
836.029
836.024
836.02
836.016
836.013
836.01
836.008
836.006
836.004
836.003
836.002
836.001
836.065
836.054
836.045
836.037
836.031
836.025
836.021
836.017
836.013
836.01
836.008
836.006
836.004
836.002
836.001
836.076
836.064
836.053
836.045
836.037
836.03
836.025
836.02
836.016
836.012
836.009
836.007
836.004
836.002
836.001
836.088
836.074
836.062
836.052
836.043
836.036
836.029
836.024
836.019
836.015
836.011
836.008
836.005
836.003
836.001
836.102
836.086
836.072
836.061
836.05
836.041
836.034
836.027
836.022
836.017
836.013
836.009
836.006
836.003
836.001
836.118
836.1
836.084
836.07
836.058
836.048
836.039
836.032
836.025
836.02
836.015
836.011
836.007
836.004
836.001
836.137
836.116
836.097
836.082
836.068
836.056
836.046
836.037
836.029
836.023
836.017
836.012
836.008
836.005
836.001
836.16
836.135
836.114
836.095
836.079
836.065
836.054
836.043
836.034
836.027
836.02
836.015
836.01
836.005
836.002
836.187
836.158
836.133
836.112
836.093
836.077
836.063
836.051
836.041
836.032
836.024
836.017
836.011
836.006
836.002
836.221
836.187
836.158
836.132
836.11
836.091
836.075
836.06
836.048
836.037
836.028
836.02
836.013
836.007
836.002
836.262
836.222
836.188
836.158
836.131
836.109
836.089
836.072
836.057
836.045
836.034
836.024
836.016
836.009
836.003
836.313
836.266
836.225
836.189
836.158
836.13
836.107
836.086
836.069
836.054
836.04
836.029
836.019
836.011
836.003
836.378
836.322
836.273
836.229
836.191
836.158
836.13
836.105
836.084
836.065
836.049
836.035
836.023
836.013
836.004
836.461
836.393
836.334
836.281
836.235
836.194
836.159
836.129
836.103
836.08
836.06
836.043
836.029
836.016
836.005
836.567
836.486
836.413
836.349
836.292
836.242
836.199
836.161
836.128
836.1
836.075
836.054
836.036
836.02
836.006
836.708
836.609
836.52
836.44
836.369
836.306
836.252
836.204
836.163
836.127
836.096
836.069
836.046
836.025
836.008
836.895
836.775
836.665
836.565
836.475
836.396
836.326
836.264
836.211
836.164
836.124
836.089
836.059
836.033
836.01
837.152
837.006
836.869
836.743
836.628
836.525
836.433
836.352
836.281
836.22
836.166
836.119
836.079
836.044
836.014
837.508
837.334
837.166
837.006
836.857
836.72
836.597
836.487
836.391
836.305
836.231
836.166
836.11
836.062
836.019
838.007
837.81
837.609
837.409
837.217
837.034
836.865
836.711
836.572
836.449
836.34
836.246
836.163
836.091
836.029
838.705
838.503
838.284
838.053
837.815
837.576
837.342
837.119
836.91
836.72
836.548
836.397
836.264
836.147
836.047
839.651
839.495
839.311
839.101
838.863
838.598
838.308
837.996
837.667
837.338
837.029
836.748
836.498
836.279
836.088
840.845
840.809
840.757
840.706
840.655
840.602
840.546
840.502
840.013
839.267
838.469
837.777
837.178
836.658
836.208
861.079
860.76
858.276
856.007
856.601
857.64
857.244
855.253
852.524
848.234
840.859
839.742
838.583
837.474
836.47
860.07
860.439
860.466
860.377
860.317
860.243
860.159
860.304
861.043
861.868
861.226
857.597
851.733
844.95
838.809
858.656
859.181
859.615
859.897
860.075
860.175
860.17
860.183
860.336
860.613
860.652
858.987
853.745
846.221
839.187
857.185
857.708
858.201
858.643
859.004
859.275
859.462
859.599
859.829
860.236
860.377
858.89
854.061
846.666
839.368
856.342
856.461
856.715
857.081
857.525
857.991
858.435
858.832
859.301
859.883
860.075
858.687
854.083
846.825
839.432
856.656
856.472
856.375
856.444
856.681
857.081
857.588
858.149
858.793
859.532
859.787
858.176
853.378
846.274
839.248
856.375
856.354
856.308
856.299
856.38
856.633
857.091
857.747
858.612
859.415
859.378
857.593
853.014
846.205
839.256
855.25
855.522
855.767
855.986
856.172
856.419
856.806
857.38
858.179
858.995
859.042
857.436
852.837
845.889
839.107
855.029
855.276
855.481
855.694
855.912
856.179
856.54
857.033
857.736
858.446
858.535
856.987
852.147
845.274
838.896
855.155
855.529
855.798
855.986
856.153
856.357
856.647
857.027
857.562
858.059
857.571
854.498
848.844
843.025
838.195
854.274
854.725
855.271
855.682
855.946
856.181
856.497
856.904
857.263
857.021
854.85
850.416
845.342
841.079
837.607
854.395
854.879
855.531
856.154
856.545
856.721
856.845
856.968
856.908
855.955
853.387
849.563
845.234
840.673
837.479
852.961
853.369
853.987
854.722
855.454
856.091
856.587
856.976
857.329
857.553
857.051
854.692
849.814
843.79
838.432
858.059
858.045
858.053
858.038
857.997
857.882
857.669
857.321
856.749
855.714
853.865
850.976
847.238
843.085
838.599
836.01
836.007
836.006
836.006
836.006
836.005
836.005
836.004
836.003
836.003
836.002
836.001
836.001
836.001
836
836.027
836.021
836.017
836.014
836.012
836.01
836.008
836.007
836.005
836.004
836.003
836.002
836.001
836.001
836
836.043
836.034
836.028
836.023
836.019
836.015
836.013
836.01
836.008
836.006
836.005
836.003
836.002
836.001
836
836.055
836.045
836.037
836.031
836.025
836.021
836.017
836.014
836.011
836.008
836.006
836.005
836.003
836.002
836.001
836.066
836.055
836.046
836.038
836.031
836.026
836.021
836.017
836.013
836.01
836.008
836.006
836.004
836.002
836.001
836.077
836.064
836.054
836.045
836.037
836.031
836.025
836.02
836.016
836.012
836.009
836.007
836.004
836.002
836.001
836.089
836.075
836.063
836.052
836.043
836.036
836.029
836.024
836.019
836.015
836.011
836.008
836.005
836.003
836.001
836.102
836.086
836.072
836.06
836.05
836.041
836.034
836.027
836.022
836.017
836.013
836.009
836.006
836.003
836.001
836.118
836.1
836.084
836.07
836.058
836.048
836.039
836.032
836.025
836.02
836.015
836.011
836.007
836.004
836.001
836.137
836.116
836.097
836.081
836.068
836.056
836.046
836.037
836.029
836.023
836.017
836.012
836.008
836.005
836.001
836.16
836.135
836.114
836.095
836.079
836.065
836.053
836.043
836.034
836.027
836.02
836.014
836.01
836.005
836.002
836.187
836.158
836.133
836.112
836.093
836.077
836.063
836.051
836.04
836.031
836.024
836.017
836.011
836.006
836.002
836.221
836.187
836.157
836.132
836.11
836.091
836.074
836.06
836.048
836.037
836.028
836.02
836.013
836.007
836.002
836.263
836.222
836.187
836.157
836.131
836.108
836.088
836.071
836.057
836.044
836.033
836.024
836.016
836.009
836.003
836.314
836.267
836.225
836.189
836.157
836.13
836.106
836.086
836.068
836.053
836.04
836.029
836.019
836.011
836.003
836.379
836.322
836.272
836.229
836.191
836.158
836.129
836.105
836.083
836.065
836.049
836.035
836.023
836.013
836.004
836.462
836.394
836.333
836.28
836.234
836.194
836.159
836.128
836.102
836.08
836.06
836.043
836.029
836.016
836.005
836.569
836.486
836.413
836.348
836.291
836.241
836.198
836.16
836.128
836.099
836.075
836.054
836.036
836.02
836.006
836.709
836.609
836.519
836.439
836.368
836.305
836.251
836.203
836.162
836.126
836.095
836.068
836.045
836.025
836.008
836.898
836.776
836.665
836.564
836.474
836.394
836.324
836.263
836.21
836.164
836.124
836.089
836.059
836.033
836.01
837.155
837.007
836.869
836.742
836.627
836.523
836.432
836.351
836.28
836.219
836.165
836.119
836.079
836.044
836.014
837.511
837.336
837.166
837.005
836.856
836.719
836.596
836.486
836.39
836.305
836.23
836.166
836.11
836.061
836.019
838.011
837.811
837.609
837.409
837.216
837.034
836.864
836.71
836.571
836.448
836.34
836.245
836.163
836.091
836.029
838.709
838.505
838.286
838.054
837.816
837.577
837.343
837.119
836.91
836.719
836.548
836.397
836.263
836.147
836.047
839.653
839.496
839.312
839.102
838.865
838.6
838.309
837.997
837.667
837.339
837.029
836.748
836.498
836.279
836.088
840.838
840.802
840.754
840.705
840.658
840.602
840.543
840.501
840.002
839.263
838.47
837.779
837.179
836.659
836.208
861.459
861.525
858.627
855.687
856.593
857.163
855.681
854.139
851.72
847.777
840.857
839.74
838.582
837.474
836.47
860.905
861.173
861.156
860.872
860.752
860.624
860.486
860.947
861.609
861.863
860.705
856.646
850.767
844.398
838.651
858.657
859.331
859.855
860.208
860.436
860.507
860.494
860.655
860.935
861.185
860.75
858.381
852.883
845.76
839.077
856.912
857.46
857.974
858.616
859.233
859.69
860.004
860.281
860.661
860.998
860.558
858.257
853.093
846.055
839.19
855.757
855.985
856.347
856.873
857.527
858.214
858.84
859.399
860.037
860.607
860.305
858.16
853.114
846.087
839.199
856.022
856.012
856.006
856.106
856.437
857.013
857.777
858.648
859.561
860.224
859.819
857.572
852.587
845.837
839.14
856.329
856.241
856.176
856.169
856.203
856.44
856.977
857.798
858.82
859.622
859.393
857.365
852.627
845.906
839.16
855.503
855.776
855.946
856.07
856.151
856.297
856.634
857.247
858.129
858.919
858.861
857.053
852.341
845.6
839.035
854.598
854.963
855.256
855.513
855.711
855.888
856.112
856.567
857.319
858.093
858.088
856.347
851.627
845.139
838.892
854.389
854.99
855.379
855.616
855.765
855.904
856.096
856.368
856.892
857.484
857.243
854.714
849.565
843.71
838.44
853.716
854.233
854.71
855.084
855.376
855.619
855.915
856.362
856.866
857.009
855.513
851.524
846.13
841.114
837.618
854.111
854.65
855.281
855.891
856.288
856.46
856.556
856.617
856.666
855.978
853.612
849.528
844.946
840.63
837.465
853.026
853.586
854.275
855.015
855.704
856.258
856.639
856.975
857.364
857.581
856.582
853.269
847.792
841.456
837.727
858.161
858.175
858.19
858.177
858.107
857.96
857.712
857.334
856.704
855.562
853.563
850.613
847.002
843.006
838.584
836.031
836.024
836.02
836.016
836.014
836.011
836.009
836.008
836.006
836.005
836.004
836.003
836.002
836.001
836
836.039
836.031
836.025
836.021
836.017
836.014
836.011
836.009
836.007
836.006
836.004
836.003
836.002
836.001
836
836.048
836.039
836.032
836.027
836.022
836.018
836.015
836.012
836.009
836.007
836.005
836.004
836.003
836.001
836
836.058
836.048
836.039
836.033
836.027
836.022
836.018
836.015
836.012
836.009
836.007
836.005
836.003
836.002
836.001
836.067
836.056
836.047
836.039
836.032
836.026
836.022
836.017
836.014
836.011
836.008
836.006
836.004
836.002
836.001
836.078
836.065
836.054
836.045
836.038
836.031
836.025
836.02
836.016
836.013
836.009
836.007
836.004
836.003
836.001
836.089
836.075
836.063
836.052
836.043
836.036
836.029
836.024
836.019
836.015
836.011
836.008
836.005
836.003
836.001
836.103
836.086
836.072
836.06
836.05
836.041
836.034
836.027
836.022
836.017
836.013
836.009
836.006
836.003
836.001
836.119
836.1
836.084
836.07
836.058
836.048
836.039
836.032
836.025
836.02
836.015
836.011
836.007
836.004
836.001
836.137
836.116
836.097
836.081
836.067
836.056
836.045
836.037
836.029
836.023
836.017
836.012
836.008
836.005
836.001
836.16
836.135
836.113
836.095
836.079
836.065
836.053
836.043
836.034
836.027
836.02
836.014
836.01
836.005
836.002
836.188
836.158
836.133
836.111
836.093
836.076
836.062
836.05
836.04
836.031
836.024
836.017
836.011
836.006
836.002
836.221
836.187
836.157
836.132
836.109
836.09
836.074
836.06
836.048
836.037
836.028
836.02
836.013
836.007
836.002
836.263
836.222
836.187
836.157
836.13
836.108
836.088
836.071
836.057
836.044
836.033
836.024
836.016
836.009
836.003
836.314
836.266
836.225
836.188
836.157
836.13
836.106
836.086
836.068
836.053
836.04
836.029
836.019
836.011
836.003
836.379
836.322
836.272
836.228
836.19
836.157
836.129
836.104
836.083
836.065
836.049
836.035
836.023
836.013
836.004
836.462
836.393
836.333
836.28
836.233
836.193
836.158
836.128
836.102
836.079
836.06
836.043
836.028
836.016
836.005
836.569
836.486
836.413
836.347
836.29
836.241
836.197
836.16
836.127
836.099
836.075
836.054
836.036
836.02
836.006
836.71
836.609
836.519
836.438
836.367
836.305
836.25
836.203
836.161
836.126
836.095
836.068
836.045
836.025
836.008
836.899
836.776
836.664
836.563
836.473
836.394
836.324
836.263
836.21
836.163
836.123
836.089
836.059
836.033
836.01
837.156
837.007
836.869
836.741
836.626
836.523
836.431
836.351
836.28
836.219
836.165
836.119
836.079
836.044
836.014
837.513
837.336
837.166
837.005
836.855
836.719
836.596
836.486
836.389
836.304
836.23
836.166
836.11
836.061
836.019
838.013
837.812
837.61
837.41
837.216
837.034
836.864
836.71
836.572
836.448
836.34
836.245
836.163
836.091
836.029
838.711
838.507
838.287
838.055
837.817
837.578
837.344
837.12
836.911
836.72
836.549
836.397
836.264
836.148
836.047
839.654
839.497
839.314
839.104
838.867
838.602
838.311
838
837.671
837.342
837.032
836.75
836.5
836.28
836.089
840.837
840.803
840.755
840.704
840.66
840.603
840.543
840.502
840.023
839.292
838.498
837.8
837.193
836.667
836.211
861.429
861.771
860.511
855.854
855.633
855.916
854.748
853.425
851.319
847.483
840.968
839.804
838.616
837.491
836.475
861.123
861.237
861.379
861.008
860.652
860.47
860.821
861.299
861.293
861.122
859.255
854.698
849.216
843.615
838.432
858.275
858.997
859.901
860.501
860.65
860.686
860.84
861.085
861.268
861.205
860.245
857.332
851.931
845.314
838.972
857.033
857.506
858.375
859.295
859.881
860.236
860.554
860.869
861.185
861.141
860.178
857.394
852.219
845.558
839.049
856.156
856.543
857.056
857.791
858.493
859.103
859.683
860.236
860.736
860.751
859.756
857.011
851.947
845.451
839.028
855.4
855.68
856.046
856.483
857.048
857.751
858.57
859.485
860.237
860.303
859.335
856.712
851.823
845.415
839.018
855.723
855.544
855.541
855.717
856.016
856.502
857.236
858.236
859.23
859.626
858.979
856.686
851.87
845.377
838.987
855.664
855.613
855.566
855.566
855.661
855.934
856.489
857.403
858.359
858.843
858.384
856.073
851.049
844.672
838.733
854.817
855.108
855.21
855.252
855.299
855.448
855.787
856.369
857.337
858.011
857.773
855.534
850.653
844.544
838.71
854.16
854.708
855.17
855.417
855.528
855.638
855.908
856.392
856.942
857.295
856.419
853.182
847.92
842.511
838.019
853.58
853.797
854.205
854.705
855.134
855.451
855.833
856.402
856.882
856.775
854.857
850.711
845.627
841.117
837.618
854.085
854.645
855.267
855.899
856.323
856.477
856.464
856.55
856.577
855.854
853.51
849.519
844.969
840.618
837.461
853.225
853.876
854.606
855.307
855.95
856.424
856.776
857.031
857.355
857.441
856.077
852.379
847.042
841.396
837.707
858.268
858.289
858.29
858.237
858.133
857.944
857.667
857.247
856.555
855.312
853.195
850.234
846.76
842.93
838.561
836.042
836.034
836.028
836.023
836.019
836.015
836.013
836.01
836.008
836.006
836.005
836.003
836.002
836.001
836
836.046
836.037
836.031
836.025
836.021
836.017
836.014
836.011
836.009
836.007
836.005
836.004
836.002
836.001
836
836.052
836.043
836.036
836.029
836.024
836.02
836.016
836.013
836.01
836.008
836.006
836.004
836.003
836.002
836.001
836.06
836.05
836.041
836.034
836.028
836.023
836.019
836.015
836.012
836.009
836.007
836.005
836.003
836.002
836.001
836.069
836.057
836.048
836.04
836.033
836.027
836.022
836.018
836.014
836.011
836.008
836.006
836.004
836.002
836.001
836.078
836.066
836.055
836.046
836.038
836.031
836.025
836.021
836.016
836.013
836.01
836.007
836.005
836.003
836.001
836.09
836.075
836.063
836.052
836.044
836.036
836.029
836.024
836.019
836.015
836.011
836.008
836.005
836.003
836.001
836.103
836.086
836.072
836.06
836.05
836.041
836.034
836.027
836.022
836.017
836.013
836.009
836.006
836.003
836.001
836.118
836.1
836.083
836.07
836.058
836.048
836.039
836.032
836.025
836.019
836.015
836.011
836.007
836.004
836.001
836.137
836.115
836.097
836.081
836.067
836.055
836.045
836.037
836.029
836.023
836.017
836.012
836.008
836.005
836.001
836.16
836.134
836.113
836.094
836.078
836.065
836.053
836.043
836.034
836.026
836.02
836.014
836.009
836.005
836.002
836.187
836.158
836.133
836.111
836.092
836.076
836.062
836.05
836.04
836.031
836.023
836.017
836.011
836.006
836.002
836.221
836.186
836.157
836.131
836.109
836.09
836.074
836.059
836.047
836.037
836.028
836.02
836.013
836.007
836.002
836.262
836.221
836.186
836.156
836.13
836.107
836.088
836.071
836.056
836.044
836.033
836.024
836.016
836.009
836.003
836.313
836.265
836.224
836.188
836.156
836.129
836.106
836.085
836.068
836.053
836.04
836.029
836.019
836.011
836.003
836.378
836.321
836.271
836.227
836.19
836.157
836.128
836.104
836.083
836.064
836.048
836.035
836.023
836.013
836.004
836.461
836.392
836.332
836.279
836.233
836.193
836.158
836.128
836.102
836.079
836.06
836.043
836.028
836.016
836.005
836.568
836.485
836.411
836.346
836.289
836.24
836.197
836.159
836.127
836.099
836.074
836.054
836.035
836.02
836.006
836.709
836.608
836.517
836.437
836.366
836.304
836.249
836.202
836.161
836.125
836.095
836.068
836.045
836.025
836.008
836.897
836.774
836.663
836.562
836.472
836.393
836.323
836.262
836.209
836.163
836.123
836.088
836.059
836.033
836.01
837.154
837.006
836.867
836.74
836.625
836.522
836.43
836.35
836.28
836.218
836.165
836.119
836.079
836.044
836.014
837.511
837.335
837.164
837.004
836.854
836.718
836.595
836.486
836.389
836.304
836.23
836.166
836.11
836.061
836.019
838.012
837.811
837.609
837.409
837.216
837.034
836.865
836.71
836.572
836.449
836.34
836.245
836.163
836.091
836.029
838.71
838.506
838.287
838.056
837.818
837.58
837.345
837.122
836.913
836.722
836.55
836.398
836.264
836.148
836.047
839.654
839.497
839.315
839.105
838.869
838.604
838.313
838.002
837.672
837.343
837.033
836.751
836.5
836.28
836.089
840.84
840.799
840.755
840.702
840.659
840.605
840.543
840.501
840.029
839.297
838.5
837.801
837.193
836.666
836.211
861.446
861.518
861.617
859.13
856.834
855.959
855.085
853.603
851.366
847.305
840.944
839.807
838.627
837.5
836.478
861.353
861.531
861.621
861.508
861.245
860.907
860.909
861.148
861.051
861.048
859.929
856.139
850.529
844.394
838.672
858.948
859.647
860.253
860.811
861.051
861.101
861.19
861.374
861.471
861.208
860.05
857.009
851.72
845.233
838.949
858.061
858.397
859.077
859.853
860.404
860.741
861.011
861.274
861.411
861.082
859.856
857.028
851.923
845.424
839.019
858.119
858.086
858.404
858.997
859.515
859.945
860.364
860.793
861.036
860.701
859.431
856.582
851.562
845.236
838.965
857.05
857.305
857.486
857.818
858.275
858.836
859.47
860.124
860.5
860.252
859.086
856.343
851.388
845.111
838.917
855.669
856.207
856.413
856.602
856.892
857.362
858.042
858.859
859.53
859.548
858.636
856.021
851.018
844.785
838.792
855.408
855.622
855.78
855.895
856.117
856.506
857.108
857.949
858.645
858.651
857.563
854.49
849.489
843.826
838.489
854.994
855.171
855.278
855.369
855.529
855.809
856.35
857.065
857.758
857.91
857.061
854.378
849.615
843.966
838.541
854.467
854.976
855.337
855.522
855.652
855.885
856.249
856.748
857.189
857.205
855.896
852.434
847.37
842.323
837.992
853.834
854.102
854.534
854.97
855.355
855.711
856.098
856.596
856.981
856.701
854.643
850.472
845.507
841.117
837.618
854.213
854.801
855.6
856.259
856.646
856.709
856.586
856.606
856.618
856.003
853.728
849.6
844.944
840.62
837.461
853.478
854.172
854.956
855.563
856.11
856.589
856.924
857.157
857.496
857.573
855.948
851.922
846.635
841.373
837.7
858.3
858.32
858.326
858.237
858.107
857.887
857.568
857.094
856.356
855.021
852.814
849.879
846.53
842.827
838.53
836.047
836.039
836.032
836.027
836.022
836.018
836.015
836.012
836.009
836.007
836.006
836.004
836.003
836.001
836
836.05
836.042
836.034
836.028
836.024
836.019
836.016
836.013
836.01
836.008
836.006
836.004
836.003
836.002
836
836.055
836.046
836.038
836.032
836.026
836.021
836.017
836.014
836.011
836.009
836.007
836.005
836.003
836.002
836.001
836.062
836.051
836.043
836.036
836.029
836.024
836.02
836.016
836.013
836.01
836.007
836.005
836.004
836.002
836.001
836.069
836.058
836.048
836.04
836.033
836.028
836.022
836.018
836.014
836.011
836.008
836.006
836.004
836.002
836.001
836.078
836.066
836.055
836.046
836.038
836.031
836.026
836.021
836.016
836.013
836.01
836.007
836.005
836.003
836.001
836.089
836.075
836.063
836.052
836.044
836.036
836.029
836.024
836.019
836.015
836.011
836.008
836.005
836.003
836.001
836.102
836.086
836.072
836.06
836.05
836.041
836.034
836.027
836.022
836.017
836.013
836.009
836.006
836.003
836.001
836.117
836.099
836.083
836.069
836.058
836.048
836.039
836.031
836.025
836.019
836.015
836.011
836.007
836.004
836.001
836.136
836.115
836.096
836.08
836.067
836.055
836.045
836.036
836.029
836.023
836.017
836.012
836.008
836.005
836.001
836.158
836.134
836.112
836.094
836.078
836.064
836.053
836.043
836.034
836.026
836.02
836.014
836.009
836.005
836.002
836.185
836.157
836.132
836.11
836.092
836.076
836.062
836.05
836.04
836.031
836.023
836.017
836.011
836.006
836.002
836.219
836.185
836.156
836.13
836.108
836.089
836.073
836.059
836.047
836.037
836.028
836.02
836.013
836.007
836.002
836.26
836.22
836.185
836.155
836.129
836.107
836.087
836.071
836.056
836.044
836.033
836.024
836.016
836.009
836.003
836.311
836.264
836.222
836.186
836.155
836.128
836.105
836.085
836.068
836.053
836.04
836.028
836.019
836.011
836.003
836.375
836.319
836.269
836.226
836.188
836.156
836.128
836.103
836.082
836.064
836.048
836.035
836.023
836.013
836.004
836.458
836.39
836.33
836.277
836.231
836.191
836.157
836.127
836.101
836.079
836.059
836.043
836.028
836.016
836.005
836.564
836.482
836.409
836.345
836.288
836.239
836.196
836.158
836.126
836.098
836.074
836.053
836.035
836.02
836.006
836.704
836.604
836.515
836.435
836.364
836.302
836.248
836.201
836.16
836.125
836.094
836.068
836.045
836.025
836.008
836.892
836.771
836.66
836.56
836.47
836.391
836.322
836.261
836.208
836.162
836.123
836.088
836.058
836.033
836.01
837.149
837.002
836.864
836.738
836.623
836.52
836.429
836.349
836.279
836.218
836.164
836.118
836.078
836.044
836.014
837.506
837.33
837.161
837.001
836.853
836.717
836.594
836.485
836.388
836.304
836.23
836.165
836.11
836.061
836.019
838.007
837.808
837.606
837.407
837.215
837.033
836.864
836.71
836.572
836.449
836.34
836.245
836.163
836.091
836.029
838.706
838.504
838.285
838.055
837.818
837.58
837.346
837.123
836.914
836.722
836.551
836.398
836.265
836.148
836.047
839.65
839.495
839.314
839.106
838.87
838.607
838.317
838.006
837.678
837.349
837.038
836.755
836.503
836.282
836.089
840.832
840.798
840.752
840.703
840.661
840.612
840.548
840.503
840.062
839.339
838.539
837.832
837.214
836.679
836.215
861.436
861.261
861.667
861.545
858.566
856.245
855.339
854.171
851.842
847.535
841.06
839.876
838.663
837.516
836.483
861.175
861.318
861.522
861.673
861.616
861.269
860.978
861.102
861.052
861.037
859.869
855.851
849.987
843.909
838.496
859.17
859.737
860.214
860.775
861.198
861.293
861.359
861.527
861.595
861.274
860.132
857.156
851.747
845.203
838.934
858.843
858.945
859.238
859.949
860.61
861.021
861.276
861.491
861.548
861.15
859.947
857.052
851.811
845.301
838.97
858.865
859.015
859.218
859.648
860.162
860.551
860.868
861.135
861.147
860.613
859.213
856.226
851.102
844.892
838.846
858.582
858.953
858.985
859.203
859.511
859.863
860.213
860.557
860.645
860.188
858.858
855.888
850.814
844.711
838.788
857.251
857.862
857.931
858.084
858.311
858.651
859.106
859.57
859.8
859.5
858.302
855.332
850.297
844.372
838.674
855.737
856.32
856.595
856.809
857.128
857.521
858.025
858.562
858.834
858.479
857.018
853.775
848.944
843.546
838.412
855.001
855.207
855.409
855.661
855.978
856.473
857.062
857.643
857.975
857.696
856.284
853.104
848.371
843.182
838.295
854.464
854.86
855.395
855.694
855.869
856.132
856.601
857.073
857.269
856.769
854.81
850.972
846.069
841.474
837.732
854.025
854.14
854.599
855.159
855.608
855.912
856.284
856.739
857.055
856.672
854.572
850.48
845.635
841.116
837.618
854.51
855.045
855.956
856.708
856.999
856.843
856.659
856.692
856.738
856.18
853.803
849.531
844.84
840.624
837.463
853.786
854.531
855.262
855.622
856.003
856.511
856.846
857.15
857.619
857.625
855.63
851.361
846.233
841.365
837.698
858.412
858.4
858.342
858.221
858.086
857.881
857.566
857.095
856.329
854.917
852.655
849.792
846.581
842.9
838.558
836.051
836.042
836.035
836.029
836.024
836.02
836.016
836.013
836.01
836.008
836.006
836.004
836.003
836.002
836.001
836.053
836.044
836.037
836.03
836.025
836.021
836.017
836.014
836.011
836.008
836.006
836.005
836.003
836.002
836.001
836.057
836.047
836.04
836.033
836.027
836.023
836.018
836.015
836.012
836.009
836.007
836.005
836.003
836.002
836.001
836.062
836.052
836.044
836.036
836.03
836.025
836.02
836.016
836.013
836.01
836.008
836.005
836.004
836.002
836.001
836.069
836.058
836.049
836.041
836.034
836.028
836.023
836.018
836.015
836.011
836.009
836.006
836.004
836.002
836.001
836.078
836.066
836.055
836.046
836.038
836.032
836.026
836.021
836.017
836.013
836.01
836.007
836.005
836.003
836.001
836.088
836.075
836.063
836.052
836.043
836.036
836.029
836.024
836.019
836.015
836.011
836.008
836.005
836.003
836.001
836.101
836.085
836.072
836.06
836.05
836.041
836.034
836.027
836.022
836.017
836.013
836.009
836.006
836.003
836.001
836.116
836.098
836.082
836.069