/*--------------------------------*- C++ -*----------------------------------*\
  =========                 |
  \\      /  F ield         | OpenFOAM: The Open Source CFD Toolbox
   \\    /   O peration     | Website:  https://openfoam.org
    \\  /    A nd           | Version:  6
     \\/     M anipulation  |
\*---------------------------------------------------------------------------*/
FoamFile
{
    version     2.0;
    format      ascii;
    class       volScalarField;
    location    "10000";
    object      T;
}
// * * * * * * * * * * * * * * * * * * * * * * * * * * * * * * * * * * * * * //

dimensions      [0 0 0 1 0 0 0];

internalField   nonuniform List<scalar> 
120400
(
836.044
836.037
836.031
836.026
836.022
836.018
836.015
836.012
836.01
836.007
836.006
836.004
836.003
836.001
836
836.045
836.038
836.032
836.027
836.022
836.019
836.015
836.012
836.01
836.008
836.006
836.004
836.003
836.002
836
836.047
836.04
836.034
836.028
836.024
836.019
836.016
836.013
836.01
836.008
836.006
836.004
836.003
836.002
836.001
836.051
836.043
836.036
836.03
836.025
836.021
836.017
836.014
836.011
836.009
836.006
836.005
836.003
836.002
836.001
836.056
836.047
836.04
836.033
836.028
836.023
836.019
836.015
836.012
836.009
836.007
836.005
836.003
836.002
836.001
836.062
836.052
836.044
836.037
836.031
836.025
836.021
836.017
836.013
836.01
836.008
836.006
836.004
836.002
836.001
836.069
836.059
836.05
836.042
836.035
836.029
836.023
836.019
836.015
836.012
836.009
836.006
836.004
836.002
836.001
836.079
836.067
836.056
836.047
836.039
836.032
836.027
836.022
836.017
836.013
836.01
836.007
836.005
836.003
836.001
836.09
836.076
836.064
836.054
836.045
836.037
836.03
836.025
836.02
836.015
836.012
836.008
836.005
836.003
836.001
836.103
836.088
836.074
836.062
836.052
836.043
836.035
836.028
836.023
836.018
836.013
836.01
836.006
836.004
836.001
836.119
836.101
836.085
836.071
836.06
836.049
836.04
836.033
836.026
836.02
836.015
836.011
836.007
836.004
836.001
836.138
836.117
836.099
836.083
836.069
836.057
836.047
836.038
836.03
836.023
836.018
836.013
836.008
836.005
836.001
836.16
836.135
836.114
836.096
836.08
836.066
836.054
836.044
836.035
836.027
836.021
836.015
836.01
836.005
836.002
836.185
836.157
836.133
836.111
836.093
836.077
836.063
836.051
836.041
836.032
836.024
836.017
836.011
836.006
836.002
836.215
836.183
836.154
836.129
836.108
836.089
836.073
836.059
836.047
836.037
836.028
836.02
836.013
836.007
836.002
836.251
836.213
836.18
836.151
836.126
836.104
836.085
836.069
836.055
836.043
836.032
836.023
836.015
836.009
836.003
836.292
836.248
836.209
836.176
836.147
836.121
836.099
836.08
836.064
836.05
836.038
836.027
836.018
836.01
836.003
836.341
836.29
836.245
836.205
836.171
836.142
836.116
836.094
836.075
836.058
836.044
836.032
836.021
836.012
836.004
836.398
836.339
836.286
836.24
836.201
836.166
836.136
836.11
836.088
836.068
836.052
836.037
836.025
836.014
836.004
836.466
836.397
836.336
836.282
836.235
836.195
836.16
836.129
836.103
836.08
836.061
836.044
836.029
836.016
836.005
836.547
836.466
836.395
836.332
836.277
836.23
836.188
836.152
836.122
836.095
836.072
836.051
836.034
836.019
836.006
836.644
836.55
836.466
836.392
836.327
836.271
836.223
836.18
836.144
836.112
836.085
836.061
836.04
836.023
836.007
836.761
836.651
836.552
836.465
836.389
836.322
836.264
836.214
836.171
836.133
836.101
836.072
836.048
836.027
836.008
836.903
836.774
836.657
836.554
836.464
836.385
836.316
836.256
836.204
836.159
836.12
836.086
836.057
836.032
836.01
837.078
836.925
836.787
836.665
836.557
836.462
836.38
836.308
836.246
836.192
836.145
836.104
836.069
836.039
836.012
837.294
837.114
836.951
836.804
836.675
836.561
836.461
836.374
836.298
836.233
836.176
836.127
836.084
836.047
836.015
837.565
837.354
837.159
836.983
836.826
836.687
836.565
836.459
836.366
836.286
836.216
836.156
836.103
836.058
836.018
837.912
837.662
837.428
837.215
837.023
836.853
836.703
836.571
836.456
836.356
836.269
836.194
836.128
836.072
836.023
838.36
838.066
837.786
837.525
837.289
837.077
836.889
836.723
836.578
836.451
836.341
836.246
836.163
836.091
836.029
838.951
838.609
838.271
837.951
837.655
837.387
837.147
836.935
836.748
836.585
836.443
836.319
836.211
836.118
836.037
839.733
839.36
838.954
838.554
838.177
837.831
837.519
837.24
836.994
836.778
836.589
836.424
836.282
836.157
836.05
840.71
840.5
839.956
839.43
838.943
838.489
838.073
837.697
837.363
837.069
836.81
836.584
836.387
836.217
836.069
844.901
843.219
841.32
840.602
840.09
839.501
838.939
838.419
837.949
837.531
837.162
836.839
836.557
836.311
836.099
850.04
847.944
845.993
844.285
842.731
841.274
840.447
839.664
838.952
838.318
837.759
837.269
836.842
836.471
836.149
856.021
853.427
850.972
848.709
846.66
844.834
843.233
841.822
840.579
839.586
838.716
837.958
837.299
836.727
836.23
863.151
860.019
856.958
854.048
851.341
848.867
846.638
844.65
842.891
841.346
840.052
838.922
837.938
837.084
836.344
871.936
868.343
864.685
861.074
857.6
854.332
851.317
848.579
846.124
843.947
842.03
840.352
838.889
837.616
836.512
883.004
879.257
875.229
871.03
866.778
862.585
858.55
854.751
851.243
848.055
845.198
842.662
840.433
838.483
836.787
896.947
893.771
890.098
885.958
881.411
876.548
871.491
866.37
861.319
856.457
851.879
847.656
843.827
840.411
837.402
913.813
912.422
910.649
908.398
905.562
902.039
897.752
892.658
886.765
880.13
872.856
865.083
856.968
848.679
840.375
836.044
836.037
836.031
836.026
836.022
836.018
836.015
836.012
836.009
836.007
836.006
836.004
836.003
836.001
836
836.045
836.038
836.032
836.027
836.022
836.018
836.015
836.012
836.01
836.008
836.006
836.004
836.003
836.002
836
836.047
836.04
836.034
836.028
836.023
836.019
836.016
836.013
836.01
836.008
836.006
836.004
836.003
836.002
836
836.051
836.043
836.036
836.03
836.025
836.021
836.017
836.014
836.011
836.008
836.006
836.005
836.003
836.002
836.001
836.056
836.047
836.04
836.033
836.027
836.023
836.019
836.015
836.012
836.009
836.007
836.005
836.003
836.002
836.001
836.062
836.052
836.044
836.037
836.031
836.025
836.021
836.017
836.013
836.01
836.008
836.006
836.004
836.002
836.001
836.069
836.059
836.049
836.041
836.034
836.028
836.023
836.019
836.015
836.012
836.009
836.006
836.004
836.002
836.001
836.079
836.067
836.056
836.047
836.039
836.032
836.026
836.021
836.017
836.013
836.01
836.007
836.005
836.003
836.001
836.09
836.076
836.064
836.054
836.045
836.037
836.03
836.024
836.019
836.015
836.011
836.008
836.005
836.003
836.001
836.103
836.087
836.074
836.062
836.051
836.042
836.035
836.028
836.022
836.017
836.013
836.009
836.006
836.003
836.001
836.119
836.101
836.085
836.071
836.059
836.049
836.04
836.032
836.026
836.02
836.015
836.011
836.007
836.004
836.001
836.138
836.117
836.098
836.082
836.068
836.056
836.046
836.037
836.03
836.023
836.017
836.013
836.008
836.005
836.001
836.16
836.135
836.114
836.095
836.079
836.065
836.054
836.043
836.034
836.027
836.02
836.015
836.01
836.005
836.002
836.185
836.157
836.132
836.111
836.092
836.076
836.062
836.05
836.04
836.031
836.023
836.017
836.011
836.006
836.002
836.215
836.182
836.154
836.129
836.107
836.088
836.072
836.058
836.047
836.036
836.027
836.02
836.013
836.007
836.002
836.251
836.212
836.179
836.15
836.125
836.103
836.084
836.068
836.054
836.042
836.032
836.023
836.015
836.008
836.003
836.292
836.247
836.209
836.175
836.146
836.12
836.098
836.08
836.063
836.049
836.037
836.027
836.018
836.01
836.003
836.341
836.289
836.244
836.204
836.17
836.141
836.115
836.093
836.074
836.058
836.043
836.031
836.021
836.012
836.004
836.398
836.338
836.285
836.239
836.199
836.165
836.135
836.109
836.087
836.067
836.051
836.037
836.024
836.014
836.004
836.466
836.396
836.334
836.28
836.234
836.193
836.158
836.128
836.102
836.079
836.06
836.043
836.028
836.016
836.005
836.547
836.465
836.393
836.33
836.275
836.228
836.186
836.151
836.12
836.093
836.07
836.051
836.034
836.019
836.006
836.644
836.548
836.464
836.39
836.325
836.269
836.22
836.178
836.142
836.11
836.083
836.06
836.04
836.022
836.007
836.761
836.649
836.549
836.462
836.386
836.319
836.262
836.212
836.169
836.131
836.099
836.071
836.047
836.026
836.008
836.903
836.772
836.654
836.551
836.46
836.381
836.313
836.253
836.202
836.157
836.118
836.085
836.056
836.031
836.01
837.077
836.923
836.784
836.661
836.553
836.458
836.376
836.305
836.243
836.189
836.143
836.102
836.068
836.038
836.012
837.293
837.111
836.946
836.799
836.67
836.556
836.456
836.37
836.295
836.23
836.173
836.125
836.082
836.046
836.015
837.565
837.35
837.153
836.977
836.82
836.681
836.56
836.454
836.362
836.282
836.213
836.153
836.101
836.057
836.018
837.91
837.657
837.422
837.208
837.016
836.846
836.696
836.565
836.45
836.351
836.265
836.191
836.126
836.071
836.022
838.358
838.06
837.777
837.516
837.279
837.067
836.88
836.715
836.571
836.445
836.336
836.242
836.16
836.089
836.028
838.946
838.6
838.261
837.939
837.643
837.375
837.136
836.924
836.739
836.577
836.436
836.314
836.208
836.116
836.037
839.726
839.349
838.941
838.539
838.162
837.816
837.504
837.227
836.982
836.767
836.58
836.418
836.277
836.155
836.049
840.709
840.491
839.941
839.413
838.925
838.47
838.054
837.68
837.348
837.055
836.798
836.575
836.381
836.213
836.067
844.896
843.199
841.303
840.59
840.069
839.476
838.913
838.395
837.927
837.511
837.146
836.826
836.547
836.306
836.097
850.033
847.909
845.947
844.235
842.68
841.226
840.403
839.625
838.917
838.288
837.734
837.25
836.829
836.463
836.146
856.007
853.378
850.905
848.635
846.585
844.762
843.169
841.77
840.54
839.549
838.685
837.933
837.28
836.715
836.226
863.128
859.953
856.869
853.947
851.236
848.763
846.538
844.557
842.808
841.273
839.992
838.876
837.906
837.065
836.337
871.902
868.26
864.574
860.946
857.463
854.194
851.183
848.453
846.01
843.847
841.947
840.287
838.842
837.589
836.503
882.96
879.163
875.101
870.88
866.613
862.412
858.377
854.585
851.09
847.919
845.083
842.571
840.367
838.444
836.773
896.904
893.685
889.979
885.81
881.238
876.358
871.29
866.168
861.123
856.276
851.722
847.527
843.733
840.353
837.382
913.793
912.382
910.59
908.318
905.459
901.913
897.603
892.489
886.583
879.944
872.677
864.922
856.839
848.592
840.34
836.044
836.037
836.031
836.026
836.022
836.018
836.015
836.012
836.009
836.007
836.005
836.004
836.003
836.001
836
836.045
836.038
836.032
836.027
836.022
836.018
836.015
836.012
836.01
836.007
836.006
836.004
836.003
836.001
836
836.047
836.04
836.034
836.028
836.023
836.019
836.016
836.013
836.01
836.008
836.006
836.004
836.003
836.002
836
836.051
836.043
836.036
836.03
836.025
836.021
836.017
836.014
836.011
836.008
836.006
836.005
836.003
836.002
836.001
836.056
836.047
836.039
836.033
836.027
836.023
836.018
836.015
836.012
836.009
836.007
836.005
836.003
836.002
836.001
836.062
836.052
836.044
836.037
836.03
836.025
836.021
836.017
836.013
836.01
836.008
836.006
836.004
836.002
836.001
836.07
836.059
836.049
836.041
836.034
836.028
836.023
836.019
836.015
836.012
836.009
836.006
836.004
836.002
836.001
836.079
836.067
836.056
836.047
836.039
836.032
836.026
836.021
836.017
836.013
836.01
836.007
836.005
836.003
836.001
836.09
836.076
836.064
836.053
836.044
836.037
836.03
836.024
836.019
836.015
836.011
836.008
836.005
836.003
836.001
836.104
836.087
836.073
836.061
836.051
836.042
836.034
836.028
836.022
836.017
836.013
836.009
836.006
836.003
836.001
836.12
836.101
836.085
836.071
836.059
836.049
836.04
836.032
836.025
836.02
836.015
836.011
836.007
836.004
836.001
836.138
836.117
836.098
836.082
836.068
836.056
836.046
836.037
836.029
836.023
836.017
836.012
836.008
836.005
836.001
836.16
836.135
836.114
836.095
836.079
836.065
836.053
836.043
836.034
836.027
836.02
836.014
836.01
836.005
836.002
836.186
836.157
836.132
836.11
836.092
836.076
836.062
836.05
836.04
836.031
836.023
836.017
836.011
836.006
836.002
836.216
836.182
836.153
836.128
836.107
836.088
836.072
836.058
836.046
836.036
836.027
836.019
836.013
836.007
836.002
836.251
836.212
836.178
836.149
836.124
836.103
836.084
836.068
836.054
836.042
836.032
836.023
836.015
836.008
836.003
836.293
836.247
836.208
836.174
836.145
836.12
836.098
836.079
836.063
836.049
836.037
836.027
836.018
836.01
836.003
836.341
836.289
836.243
836.204
836.169
836.14
836.114
836.092
836.074
836.057
836.043
836.031
836.021
836.011
836.004
836.399
836.338
836.284
836.238
836.198
836.164
836.134
836.108
836.086
836.067
836.051
836.036
836.024
836.013
836.004
836.467
836.396
836.334
836.28
836.233
836.192
836.157
836.127
836.101
836.079
836.059
836.043
836.028
836.016
836.005
836.548
836.465
836.392
836.329
836.274
836.226
836.185
836.15
836.119
836.093
836.07
836.05
836.033
836.019
836.006
836.646
836.548
836.463
836.388
836.324
836.268
836.219
836.177
836.141
836.11
836.083
836.059
836.039
836.022
836.007
836.763
836.649
836.548
836.461
836.384
836.318
836.26
836.211
836.168
836.13
836.098
836.071
836.047
836.026
836.008
836.905
836.771
836.653
836.549
836.458
836.379
836.311
836.252
836.2
836.156
836.118
836.085
836.056
836.031
836.01
837.079
836.922
836.782
836.659
836.551
836.456
836.374
836.303
836.241
836.188
836.142
836.102
836.067
836.038
836.012
837.295
837.11
836.944
836.797
836.667
836.553
836.454
836.368
836.293
836.228
836.172
836.124
836.082
836.046
836.014
837.566
837.348
837.151
836.973
836.816
836.678
836.557
836.451
836.36
836.28
836.211
836.152
836.101
836.056
836.018
837.912
837.655
837.418
837.204
837.012
836.841
836.692
836.561
836.448
836.349
836.263
836.189
836.125
836.07
836.022
838.358
838.057
837.773
837.511
837.274
837.062
836.875
836.711
836.567
836.442
836.334
836.24
836.159
836.089
836.028
838.945
838.596
838.255
837.933
837.636
837.369
837.13
836.919
836.734
836.573
836.433
836.312
836.206
836.115
836.036
839.724
839.344
838.934
838.531
838.154
837.808
837.497
837.22
836.976
836.763
836.577
836.415
836.275
836.154
836.049
840.712
840.488
839.934
839.405
838.915
838.46
838.045
837.672
837.34
837.049
836.794
836.572
836.379
836.212
836.067
844.909
843.197
841.298
840.585
840.059
839.464
838.901
838.383
837.917
837.503
837.139
836.821
836.544
836.304
836.096
850.05
847.901
845.927
844.209
842.654
841.2
840.38
839.604
838.9
838.274
837.723
837.242
836.823
836.46
836.146
856.024
853.36
850.87
848.593
846.542
844.722
843.135
841.742
840.521
839.533
838.672
837.923
837.274
836.712
836.225
863.141
859.926
856.822
853.891
851.177
848.706
846.486
844.512
842.769
841.241
839.967
838.857
837.893
837.058
836.335
871.909
868.224
864.516
860.877
857.392
854.124
851.117
848.395
845.96
843.806
841.915
840.263
838.826
837.579
836.5
882.959
879.121
875.037
870.803
866.531
862.331
858.3
854.516
851.029
847.87
845.043
842.542
840.347
838.432
836.77
896.897
893.647
889.921
885.739
881.161
876.278
871.212
866.095
861.059
856.222
851.678
847.494
843.71
840.34
837.377
913.788
912.365
910.564
908.284
905.419
901.869
897.557
892.443
886.539
879.904
872.643
864.896
856.82
848.581
840.337
836.044
836.037
836.031
836.026
836.022
836.018
836.015
836.012
836.009
836.007
836.005
836.004
836.003
836.001
836
836.045
836.038
836.032
836.027
836.022
836.018
836.015
836.012
836.01
836.007
836.006
836.004
836.003
836.001
836
836.047
836.04
836.033
836.028
836.023
836.019
836.016
836.013
836.01
836.008
836.006
836.004
836.003
836.002
836
836.051
836.043
836.036
836.03
836.025
836.021
836.017
836.014
836.011
836.008
836.006
836.005
836.003
836.002
836.001
836.056
836.047
836.039
836.033
836.027
836.022
836.018
836.015
836.012
836.009
836.007
836.005
836.003
836.002
836.001
836.062
836.052
836.044
836.036
836.03
836.025
836.02
836.016
836.013
836.01
836.008
836.006
836.004
836.002
836.001
836.07
836.059
836.049
836.041
836.034
836.028
836.023
836.019
836.015
836.011
836.009
836.006
836.004
836.002
836.001
836.079
836.066
836.056
836.047
836.039
836.032
836.026
836.021
836.017
836.013
836.01
836.007
836.005
836.003
836.001
836.09
836.076
836.064
836.053
836.044
836.036
836.03
836.024
836.019
836.015
836.011
836.008
836.005
836.003
836.001
836.104
836.087
836.073
836.061
836.051
836.042
836.034
836.028
836.022
836.017
836.013
836.009
836.006
836.003
836.001
836.12
836.101
836.084
836.071
836.059
836.048
836.04
836.032
836.025
836.02
836.015
836.011
836.007
836.004
836.001
836.138
836.116
836.098
836.082
836.068
836.056
836.046
836.037
836.029
836.023
836.017
836.012
836.008
836.005
836.001
836.16
836.135
836.113
836.095
836.079
836.065
836.053
836.043
836.034
836.026
836.02
836.014
836.009
836.005
836.002
836.186
836.157
836.132
836.11
836.091
836.075
836.062
836.05
836.04
836.031
836.023
836.017
836.011
836.006
836.002
836.216
836.182
836.153
836.128
836.106
836.088
836.072
836.058
836.046
836.036
836.027
836.019
836.013
836.007
836.002
836.251
836.212
836.178
836.149
836.124
836.102
836.084
836.067
836.054
836.042
836.031
836.023
836.015
836.008
836.003
836.293
836.247
836.208
836.174
836.144
836.119
836.097
836.079
836.063
836.049
836.037
836.026
836.017
836.01
836.003
836.342
836.288
836.243
836.203
836.169
836.139
836.114
836.092
836.073
836.057
836.043
836.031
836.02
836.011
836.004
836.399
836.337
836.284
836.238
836.198
836.163
836.133
836.108
836.086
836.067
836.05
836.036
836.024
836.013
836.004
836.467
836.395
836.333
836.279
836.232
836.192
836.157
836.127
836.101
836.078
836.059
836.042
836.028
836.016
836.005
836.549
836.464
836.391
836.328
836.273
836.226
836.185
836.149
836.119
836.092
836.07
836.05
836.033
836.018
836.006
836.646
836.547
836.462
836.387
836.323
836.267
836.218
836.176
836.14
836.109
836.082
836.059
836.039
836.022
836.007
836.763
836.648
836.547
836.459
836.383
836.317
836.259
836.21
836.167
836.13
836.098
836.07
836.047
836.026
836.008
836.905
836.77
836.652
836.548
836.457
836.378
836.31
836.251
836.199
836.155
836.117
836.084
836.056
836.031
836.01
837.079
836.921
836.781
836.657
836.549
836.454
836.373
836.302
836.24
836.187
836.141
836.101
836.067
836.037
836.012
837.295
837.109
836.942
836.795
836.665
836.551
836.452
836.366
836.292
836.227
836.171
836.123
836.082
836.046
836.014
837.566
837.347
837.148
836.971
836.814
836.675
836.555
836.449
836.358
836.279
836.211
836.151
836.1
836.056
836.018
837.911
837.653
837.415
837.2
837.009
836.839
836.69
836.559
836.446
836.348
836.262
836.189
836.125
836.07
836.022
838.357
838.054
837.769
837.507
837.27
837.059
836.872
836.708
836.565
836.441
836.333
836.239
836.158
836.089
836.028
838.944
838.592
838.25
837.928
837.632
837.364
837.126
836.916
836.732
836.571
836.432
836.311
836.206
836.115
836.036
839.721
839.339
838.928
838.526
838.148
837.803
837.492
837.216
836.973
836.76
836.575
836.414
836.274
836.153
836.048
840.712
840.484
839.929
839.399
838.909
838.454
838.039
837.667
837.336
837.045
836.791
836.57
836.377
836.211
836.067
844.914
843.193
841.293
840.582
840.052
839.456
838.893
838.376
837.91
837.498
837.135
836.818
836.542
836.303
836.096
850.054
847.89
845.909
844.189
842.634
841.183
840.363
839.59
838.888
838.264
837.716
837.236
836.82
836.458
836.145
856.024
853.34
850.839
848.557
846.504
844.686
843.105
841.721
840.509
839.523
838.664
837.917
837.27
836.709
836.224
863.139
859.901
856.786
853.85
851.136
848.668
846.453
844.484
842.747
841.223
839.954
838.847
837.887
837.054
836.333
871.904
868.196
864.477
860.834
857.348
854.083
851.081
848.364
845.935
843.786
841.899
840.252
838.819
837.575
836.498
882.952
879.092
874.997
870.759
866.487
862.289
858.263
854.483
851.002
847.848
845.026
842.53
840.339
838.428
836.768
896.89
893.623
889.888
885.702
881.123
876.242
871.179
866.066
861.034
856.201
851.662
847.483
843.703
840.336
837.376
913.784
912.354
910.549
908.268
905.402
901.852
897.54
892.428
886.526
879.893
872.635
864.889
856.815
848.578
840.336
836.044
836.037
836.031
836.026
836.021
836.018
836.014
836.012
836.009
836.007
836.005
836.004
836.003
836.001
836
836.045
836.038
836.032
836.026
836.022
836.018
836.015
836.012
836.01
836.007
836.006
836.004
836.003
836.001
836
836.047
836.04
836.033
836.028
836.023
836.019
836.016
836.013
836.01
836.008
836.006
836.004
836.003
836.002
836
836.051
836.043
836.036
836.03
836.025
836.02
836.017
836.014
836.011
836.008
836.006
836.005
836.003
836.002
836.001
836.056
836.047
836.039
836.033
836.027
836.022
836.018
836.015
836.012
836.009
836.007
836.005
836.003
836.002
836.001
836.062
836.052
836.044
836.036
836.03
836.025
836.02
836.016
836.013
836.01
836.008
836.005
836.004
836.002
836.001
836.069
836.058
836.049
836.041
836.034
836.028
836.023
836.018
836.015
836.011
836.009
836.006
836.004
836.002
836.001
836.079
836.066
836.056
836.046
836.039
836.032
836.026
836.021
836.017
836.013
836.01
836.007
836.005
836.003
836.001
836.09
836.076
836.063
836.053
836.044
836.036
836.03
836.024
836.019
836.015
836.011
836.008
836.005
836.003
836.001
836.103
836.087
836.073
836.061
836.051
836.042
836.034
836.028
836.022
836.017
836.013
836.009
836.006
836.003
836.001
836.119
836.1
836.084
836.07
836.058
836.048
836.039
836.032
836.025
836.02
836.015
836.011
836.007
836.004
836.001
836.138
836.116
836.097
836.081
836.068
836.056
836.046
836.037
836.029
836.023
836.017
836.012
836.008
836.005
836.001
836.16
836.134
836.113
836.094
836.078
836.065
836.053
836.043
836.034
836.026
836.02
836.014
836.009
836.005
836.002
836.185
836.156
836.131
836.109
836.091
836.075
836.061
836.05
836.039
836.031
836.023
836.017
836.011
836.006
836.002
836.215
836.181
836.152
836.127
836.106
836.087
836.071
836.058
836.046
836.036
836.027
836.019
836.013
836.007
836.002
836.25
836.211
836.177
836.148
836.123
836.102
836.083
836.067
836.053
836.042
836.031
836.023
836.015
836.008
836.003
836.292
836.246
836.207
836.173
836.144
836.119
836.097
836.078
836.062
836.048
836.037
836.026
836.017
836.01
836.003
836.34
836.287
836.242
836.202
836.168
836.139
836.113
836.092
836.073
836.057
836.043
836.031
836.02
836.011
836.004
836.398
836.336
836.283
836.237
836.197
836.162
836.133
836.107
836.085
836.066
836.05
836.036
836.024
836.013
836.004
836.466
836.394
836.332
836.278
836.231
836.191
836.156
836.126
836.1
836.078
836.059
836.042
836.028
836.016
836.005
836.547
836.463
836.39
836.327
836.272
836.225
836.184
836.149
836.118
836.092
836.069
836.05
836.033
836.018
836.006
836.644
836.545
836.46
836.386
836.321
836.266
836.217
836.176
836.14
836.109
836.082
836.059
836.039
836.022
836.007
836.76
836.646
836.545
836.457
836.381
836.315
836.258
836.209
836.166
836.129
836.098
836.07
836.046
836.026
836.008
836.902
836.767
836.649
836.545
836.455
836.377
836.308
836.25
836.199
836.155
836.117
836.084
836.055
836.031
836.01
837.076
836.918
836.778
836.655
836.547
836.453
836.371
836.3
836.239
836.186
836.14
836.101
836.067
836.037
836.012
837.292
837.105
836.939
836.792
836.662
836.549
836.45
836.365
836.29
836.226
836.171
836.123
836.081
836.045
836.014
837.562
837.343
837.145
836.968
836.811
836.673
836.553
836.448
836.357
836.278
836.21
836.151
836.1
836.056
836.018
837.907
837.648
837.411
837.197
837.005
836.836
836.687
836.557
836.445
836.347
836.262
836.188
836.124
836.07
836.022
838.352
838.049
837.764
837.503
837.266
837.056
836.869
836.706
836.563
836.439
836.332
836.239
836.158
836.088
836.028
838.938
838.586
838.245
837.923
837.627
837.361
837.123
836.913
836.73
836.57
836.43
836.31
836.205
836.115
836.036
839.715
839.332
838.922
838.52
838.143
837.798
837.489
837.213
836.971
836.758
836.573
836.413
836.273
836.153
836.048
840.706
840.475
839.92
839.391
838.902
838.448
838.034
837.662
837.332
837.042
836.789
836.568
836.376
836.21
836.067
844.895
843.176
841.279
840.576
840.044
839.448
838.885
838.368
837.904
837.492
837.131
836.815
836.54
836.302
836.095
850.023
847.859
845.88
844.163
842.611
841.166
840.344
839.572
838.873
838.252
837.706
837.229
836.815
836.455
836.144
855.983
853.296
850.793
848.506
846.448
844.628
843.053
841.687
840.502
839.513
838.654
837.909
837.264
836.706
836.223
863.093
859.854
856.739
853.805
851.093
848.628
846.418
844.457
842.727
841.211
839.944
838.84
837.882
837.052
836.333
871.857
868.149
864.432
860.792
857.311
854.051
851.054
848.341
845.917
843.772
841.889
840.244
838.814
837.572
836.497
882.91
879.05
874.957
870.722
866.454
862.261
858.239
854.464
850.986
847.835
845.017
842.523
840.334
838.425
836.768
896.86
893.592
889.859
885.675
881.099
876.221
871.161
866.051
861.022
856.192
851.655
847.478
843.699
840.334
837.376
913.773
912.343
910.538
908.257
905.393
901.844
897.533
892.423
886.522
879.89
872.633
864.888
856.815
848.578
840.336
836.044
836.037
836.031
836.026
836.021
836.018
836.014
836.012
836.009
836.007
836.005
836.004
836.003
836.001
836
836.045
836.038
836.031
836.026
836.022
836.018
836.015
836.012
836.009
836.007
836.006
836.004
836.003
836.001
836
836.047
836.039
836.033
836.028
836.023
836.019
836.015
836.012
836.01
836.008
836.006
836.004
836.003
836.002
836
836.05
836.042
836.036
836.03
836.025
836.02
836.017
836.013
836.011
836.008
836.006
836.004
836.003
836.002
836.001
836.055
836.046
836.039
836.032
836.027
836.022
836.018
836.015
836.012
836.009
836.007
836.005
836.003
836.002
836.001
836.061
836.051
836.043
836.036
836.03
836.025
836.02
836.016
836.013
836.01
836.008
836.005
836.004
836.002
836.001
836.069
836.058
836.049
836.041
836.034
836.028
836.023
836.018
836.015
836.011
836.009
836.006
836.004
836.002
836.001
836.078
836.066
836.055
836.046
836.038
836.032
836.026
836.021
836.017
836.013
836.01
836.007
836.005
836.003
836.001
836.089
836.075
836.063
836.053
836.044
836.036
836.029
836.024
836.019
836.015
836.011
836.008
836.005
836.003
836.001
836.102
836.086
836.072
836.06
836.05
836.041
836.034
836.027
836.022
836.017
836.013
836.009
836.006
836.003
836.001
836.118
836.099
836.084
836.07
836.058
836.048
836.039
836.032
836.025
836.02
836.015
836.011
836.007
836.004
836.001
836.137
836.115
836.097
836.081
836.067
836.055
836.045
836.037
836.029
836.023
836.017
836.012
836.008
836.005
836.001
836.158
836.133
836.112
836.094
836.078
836.064
836.052
836.042
836.034
836.026
836.02
836.014
836.009
836.005
836.002
836.184
836.155
836.13
836.109
836.09
836.075
836.061
836.049
836.039
836.03
836.023
836.016
836.011
836.006
836.002
836.213
836.18
836.151
836.126
836.105
836.087
836.071
836.057
836.046
836.035
836.027
836.019
836.013
836.007
836.002
836.248
836.21
836.176
836.147
836.122
836.101
836.083
836.067
836.053
836.041
836.031
836.022
836.015
836.008
836.003
836.289
836.244
836.205
836.172
836.143
836.118
836.096
836.078
836.062
836.048
836.036
836.026
836.017
836.01
836.003
836.338
836.285
836.24
836.201
836.167
836.138
836.113
836.091
836.072
836.056
836.042
836.031
836.02
836.011
836.004
836.395
836.334
836.281
836.235
836.196
836.161
836.132
836.107
836.085
836.066
836.05
836.036
836.024
836.013
836.004
836.462
836.391
836.329
836.276
836.23
836.19
836.155
836.125
836.1
836.078
836.059
836.042
836.028
836.016
836.005
836.542
836.459
836.387
836.325
836.27
836.223
836.183
836.148
836.118
836.091
836.069
836.05
836.033
836.018
836.006
836.639
836.542
836.457
836.383
836.319
836.264
836.216
836.175
836.139
836.108
836.082
836.059
836.039
836.022
836.007
836.755
836.641
836.542
836.455
836.379
836.314
836.257
836.208
836.165
836.129
836.097
836.07
836.046
836.026
836.008
836.895
836.762
836.645
836.542
836.453
836.375
836.307
836.248
836.198
836.154
836.116
836.083
836.055
836.031
836.01
837.068
836.912
836.773
836.651
836.544
836.45
836.369
836.299
836.238
836.185
836.14
836.1
836.066
836.037
836.012
837.283
837.099
836.934
836.788
836.659
836.546
836.448
836.363
836.289
836.225
836.17
836.122
836.081
836.045
836.014
837.552
837.335
837.139
836.963
836.807
836.67
836.55
836.446
836.355
836.277
836.209
836.15
836.099
836.055
836.018
837.896
837.64
837.405
837.192
837.001
836.833
836.685
836.555
836.443
836.345
836.261
836.187
836.124
836.069
836.022
838.34
838.04
837.757
837.497
837.262
837.052
836.866
836.704
836.561
836.438
836.331
836.238
836.157
836.088
836.028
838.925
838.576
838.237
837.916
837.622
837.356
837.119
836.911
836.727
836.568
836.429
836.309
836.204
836.114
836.036
839.702
839.322
838.912
838.512
838.137
837.793
837.484
837.21
836.968
836.756
836.572
836.411
836.272
836.152
836.048
840.694
840.461
839.908
839.381
838.894
838.441
838.028
837.657
837.329
837.039
836.786
836.566
836.375
836.21
836.066
844.841
843.137
841.252
840.567
840.034
839.438
838.875
838.36
837.897
837.487
837.126
836.812
836.538
836.301
836.095
849.943
847.8
845.836
844.13
842.584
841.144
840.319
839.547
838.852
838.236
837.694
837.221
836.809
836.452
836.143
855.885
853.222
850.734
848.453
846.39
844.549
842.928
841.487
840.405
839.447
838.609
837.879
837.245
836.696
836.22
862.985
859.773
856.676
853.754
851.049
848.59
846.383
844.426
842.706
841.199
839.934
838.833
837.877
837.049
836.332
871.749
868.069
864.371
860.744
857.272
854.019
851.028
848.32
845.9
843.759
841.879
840.237
838.809
837.57
836.497
882.815
878.981
874.905
870.681
866.421
862.234
858.217
854.446
850.973
847.825
845.009
842.517
840.331
838.423
836.767
896.794
893.545
889.823
885.647
881.077
876.203
871.147
866.04
861.013
856.185
851.65
847.474
843.697
840.332
837.375
913.75
912.326
910.526
908.248
905.385
901.838
897.529
892.419
886.519
879.888
872.631
864.887
856.814
848.578
840.336
836.043
836.036
836.03
836.025
836.021
836.017
836.014
836.012
836.009
836.007
836.005
836.004
836.003
836.001
836
836.044
836.037
836.031
836.026
836.022
836.018
836.015
836.012
836.009
836.007
836.006
836.004
836.003
836.001
836
836.046
836.039
836.033
836.027
836.023
836.019
836.015
836.012
836.01
836.008
836.006
836.004
836.003
836.002
836
836.05
836.042
836.035
836.029
836.024
836.02
836.017
836.013
836.011
836.008
836.006
836.004
836.003
836.002
836.001
836.054
836.046
836.039
836.032
836.027
836.022
836.018
836.015
836.012
836.009
836.007
836.005
836.003
836.002
836.001
836.06
836.051
836.043
836.036
836.03
836.025
836.02
836.016
836.013
836.01
836.008
836.005
836.004
836.002
836.001
836.068
836.057
836.048
836.04
836.033
836.028
836.023
836.018
836.014
836.011
836.008
836.006
836.004
836.002
836.001
836.077
836.065
836.055
836.046
836.038
836.031
836.026
836.021
836.016
836.013
836.01
836.007
836.005