/*--------------------------------*- C++ -*----------------------------------*\
  =========                 |
  \\      /  F ield         | OpenFOAM: The Open Source CFD Toolbox
   \\    /   O peration     | Website:  https://openfoam.org
    \\  /    A nd           | Version:  6
     \\/     M anipulation  |
\*---------------------------------------------------------------------------*/
FoamFile
{
    version     2.0;
    format      ascii;
    class       volScalarField;
    location    "349.997385708392244";
    object      H;
}
// * * * * * * * * * * * * * * * * * * * * * * * * * * * * * * * * * * * * * //

dimensions      [1 -1 -2 0 0 0 0];

internalField   nonuniform List<scalar> 
120400
(
2.99035e+09
2.99078e+09
2.99094e+09
2.99101e+09
2.99105e+09
2.99106e+09
2.99107e+09
2.99108e+09
2.99108e+09
2.99108e+09
2.99108e+09
2.99108e+09
2.99108e+09
2.99108e+09
2.99108e+09
2.99105e+09
2.99106e+09
2.99108e+09
2.99109e+09
2.99109e+09
2.9911e+09
2.9911e+09
2.99109e+09
2.99109e+09
2.99109e+09
2.99109e+09
2.99109e+09
2.99109e+09
2.99108e+09
2.99108e+09
2.99121e+09
2.99118e+09
2.99116e+09
2.99115e+09
2.99114e+09
2.99113e+09
2.99112e+09
2.99111e+09
2.99111e+09
2.9911e+09
2.9911e+09
2.99109e+09
2.99109e+09
2.99109e+09
2.99108e+09
2.99128e+09
2.99124e+09
2.99121e+09
2.99119e+09
2.99117e+09
2.99116e+09
2.99114e+09
2.99113e+09
2.99112e+09
2.99111e+09
2.99111e+09
2.9911e+09
2.99109e+09
2.99109e+09
2.99108e+09
2.99133e+09
2.99129e+09
2.99125e+09
2.99122e+09
2.9912e+09
2.99118e+09
2.99116e+09
2.99115e+09
2.99113e+09
2.99112e+09
2.99111e+09
2.9911e+09
2.9911e+09
2.99109e+09
2.99109e+09
2.99137e+09
2.99132e+09
2.99129e+09
2.99125e+09
2.99122e+09
2.9912e+09
2.99118e+09
2.99116e+09
2.99114e+09
2.99113e+09
2.99112e+09
2.99111e+09
2.9911e+09
2.99109e+09
2.99109e+09
2.99142e+09
2.99137e+09
2.99132e+09
2.99128e+09
2.99125e+09
2.99122e+09
2.99119e+09
2.99117e+09
2.99115e+09
2.99114e+09
2.99112e+09
2.99111e+09
2.9911e+09
2.99109e+09
2.99109e+09
2.99147e+09
2.99141e+09
2.99136e+09
2.99131e+09
2.99128e+09
2.99124e+09
2.99121e+09
2.99119e+09
2.99117e+09
2.99115e+09
2.99113e+09
2.99112e+09
2.99111e+09
2.9911e+09
2.99109e+09
2.99153e+09
2.99146e+09
2.9914e+09
2.99135e+09
2.99131e+09
2.99127e+09
2.99123e+09
2.99121e+09
2.99118e+09
2.99116e+09
2.99114e+09
2.99112e+09
2.99111e+09
2.9911e+09
2.99109e+09
2.99161e+09
2.99153e+09
2.99146e+09
2.9914e+09
2.99134e+09
2.9913e+09
2.99126e+09
2.99123e+09
2.9912e+09
2.99117e+09
2.99115e+09
2.99113e+09
2.99111e+09
2.9911e+09
2.99109e+09
2.9917e+09
2.99161e+09
2.99152e+09
2.99145e+09
2.99139e+09
2.99134e+09
2.99129e+09
2.99125e+09
2.99122e+09
2.99119e+09
2.99116e+09
2.99114e+09
2.99112e+09
2.9911e+09
2.99109e+09
2.99181e+09
2.9917e+09
2.9916e+09
2.99152e+09
2.99145e+09
2.99138e+09
2.99133e+09
2.99128e+09
2.99124e+09
2.99121e+09
2.99118e+09
2.99115e+09
2.99113e+09
2.99111e+09
2.99109e+09
2.99195e+09
2.99182e+09
2.9917e+09
2.9916e+09
2.99152e+09
2.99144e+09
2.99138e+09
2.99132e+09
2.99127e+09
2.99123e+09
2.99119e+09
2.99116e+09
2.99114e+09
2.99111e+09
2.99109e+09
2.99212e+09
2.99197e+09
2.99183e+09
2.99171e+09
2.99161e+09
2.99152e+09
2.99144e+09
2.99137e+09
2.99131e+09
2.99126e+09
2.99122e+09
2.99118e+09
2.99115e+09
2.99112e+09
2.99109e+09
2.99234e+09
2.99215e+09
2.99199e+09
2.99185e+09
2.99172e+09
2.99161e+09
2.99152e+09
2.99143e+09
2.99136e+09
2.9913e+09
2.99125e+09
2.9912e+09
2.99116e+09
2.99113e+09
2.9911e+09
2.99262e+09
2.99239e+09
2.99219e+09
2.99202e+09
2.99187e+09
2.99173e+09
2.99162e+09
2.99151e+09
2.99143e+09
2.99135e+09
2.99129e+09
2.99123e+09
2.99118e+09
2.99114e+09
2.9911e+09
2.99297e+09
2.9927e+09
2.99246e+09
2.99225e+09
2.99206e+09
2.99189e+09
2.99175e+09
2.99162e+09
2.99151e+09
2.99142e+09
2.99134e+09
2.99126e+09
2.9912e+09
2.99115e+09
2.9911e+09
2.99345e+09
2.99312e+09
2.99282e+09
2.99255e+09
2.99232e+09
2.99211e+09
2.99193e+09
2.99177e+09
2.99163e+09
2.99151e+09
2.9914e+09
2.99131e+09
2.99124e+09
2.99117e+09
2.99111e+09
2.99407e+09
2.99367e+09
2.9933e+09
2.99297e+09
2.99267e+09
2.99241e+09
2.99217e+09
2.99197e+09
2.99179e+09
2.99163e+09
2.9915e+09
2.99138e+09
2.99128e+09
2.99119e+09
2.99112e+09
2.99493e+09
2.99445e+09
2.99399e+09
2.99356e+09
2.99318e+09
2.99283e+09
2.99253e+09
2.99226e+09
2.99202e+09
2.99182e+09
2.99164e+09
2.99148e+09
2.99135e+09
2.99123e+09
2.99113e+09
2.99614e+09
2.99555e+09
2.99498e+09
2.99444e+09
2.99394e+09
2.99349e+09
2.99308e+09
2.99271e+09
2.99239e+09
2.9921e+09
2.99186e+09
2.99164e+09
2.99145e+09
2.99129e+09
2.99115e+09
2.99785e+09
2.99718e+09
2.99649e+09
2.99581e+09
2.99516e+09
2.99455e+09
2.99398e+09
2.99346e+09
2.993e+09
2.99258e+09
2.99222e+09
2.9919e+09
2.99163e+09
2.99139e+09
2.99118e+09
3.0003e+09
2.9996e+09
2.99885e+09
2.99805e+09
2.99723e+09
2.99641e+09
2.9956e+09
2.99484e+09
2.99413e+09
2.99349e+09
2.99291e+09
2.99241e+09
2.99196e+09
2.99158e+09
2.99124e+09
3.00368e+09
3.00315e+09
3.00253e+09
3.00179e+09
3.00095e+09
2.99999e+09
2.99892e+09
2.99776e+09
2.99657e+09
2.99545e+09
2.99442e+09
2.9935e+09
2.99269e+09
2.99199e+09
2.99137e+09
3.17799e+09
3.16494e+09
3.14619e+09
3.12413e+09
3.09709e+09
3.05435e+09
3.01562e+09
3.0057e+09
3.00278e+09
3.00028e+09
2.99808e+09
2.99615e+09
2.99446e+09
2.99297e+09
2.99168e+09
3.90665e+09
3.90704e+09
3.90672e+09
3.9019e+09
3.89065e+09
3.8802e+09
3.87359e+09
3.85238e+09
3.50229e+09
3.00847e+09
3.00467e+09
3.00161e+09
2.99838e+09
2.99526e+09
2.99242e+09
3.90158e+09
3.90505e+09
3.90655e+09
3.90623e+09
3.90466e+09
3.90242e+09
3.89953e+09
3.89686e+09
3.88719e+09
3.878e+09
3.86819e+09
3.8547e+09
3.83405e+09
3.81027e+09
2.99889e+09
3.88909e+09
3.89504e+09
3.89925e+09
3.90136e+09
3.90183e+09
3.90099e+09
3.89891e+09
3.89592e+09
3.89019e+09
3.88538e+09
3.88136e+09
3.87026e+09
3.8472e+09
3.81831e+09
3.00094e+09
3.87625e+09
3.88281e+09
3.88946e+09
3.89368e+09
3.89567e+09
3.89591e+09
3.8947e+09
3.8918e+09
3.88787e+09
3.88448e+09
3.88068e+09
3.86954e+09
3.84631e+09
3.81768e+09
3.00076e+09
3.87013e+09
3.87457e+09
3.88052e+09
3.88575e+09
3.8888e+09
3.88965e+09
3.88896e+09
3.88686e+09
3.88482e+09
3.8829e+09
3.87887e+09
3.86591e+09
3.84192e+09
3.81497e+09
3.00012e+09
3.8695e+09
3.87117e+09
3.87504e+09
3.87942e+09
3.88219e+09
3.88316e+09
3.8832e+09
3.88243e+09
3.88173e+09
3.88096e+09
3.87722e+09
3.86389e+09
3.84102e+09
3.81497e+09
3.00014e+09
3.86958e+09
3.87042e+09
3.8725e+09
3.87519e+09
3.87694e+09
3.87776e+09
3.87818e+09
3.87837e+09
3.87885e+09
3.87847e+09
3.87191e+09
3.85465e+09
3.82941e+09
3.80228e+09
2.99732e+09
3.86993e+09
3.87007e+09
3.87112e+09
3.87262e+09
3.8738e+09
3.8746e+09
3.87517e+09
3.87572e+09
3.87628e+09
3.87536e+09
3.86701e+09
3.84731e+09
3.82298e+09
3.60711e+09
2.99704e+09
3.86991e+09
3.87007e+09
3.87041e+09
3.87132e+09
3.87227e+09
3.87288e+09
3.87331e+09
3.87382e+09
3.87498e+09
3.87551e+09
3.86534e+09
3.8435e+09
3.82039e+09
3.40186e+09
2.99674e+09
3.8683e+09
3.86942e+09
3.86986e+09
3.87057e+09
3.8717e+09
3.87292e+09
3.87402e+09
3.87512e+09
3.87561e+09
3.87012e+09
3.854e+09
3.83304e+09
3.81508e+09
3.20833e+09
2.99647e+09
3.86554e+09
3.86832e+09
3.87e+09
3.87089e+09
3.87169e+09
3.87214e+09
3.87206e+09
3.87117e+09
3.86683e+09
3.8556e+09
3.83952e+09
3.82381e+09
3.80966e+09
3.00488e+09
2.99548e+09
3.86183e+09
3.86452e+09
3.86687e+09
3.86876e+09
3.87016e+09
3.87148e+09
3.87208e+09
3.86892e+09
3.85986e+09
3.84596e+09
3.83072e+09
3.81637e+09
3.7843e+09
3.00205e+09
2.99456e+09
3.86288e+09
3.86514e+09
3.86729e+09
3.86935e+09
3.87056e+09
3.87068e+09
3.86685e+09
3.85792e+09
3.84478e+09
3.83176e+09
3.81992e+09
3.81052e+09
3.62543e+09
3.00169e+09
2.99445e+09
3.85952e+09
3.8616e+09
3.86386e+09
3.86568e+09
3.86668e+09
3.86631e+09
3.86234e+09
3.8549e+09
3.84637e+09
3.83805e+09
3.83223e+09
3.82582e+09
3.81503e+09
3.53502e+09
2.99694e+09
3.87005e+09
3.86988e+09
3.86928e+09
3.86865e+09
3.86751e+09
3.86553e+09
3.86265e+09
3.85926e+09
3.85568e+09
3.85134e+09
3.84562e+09
3.83714e+09
3.82519e+09
3.80965e+09
3.00016e+09
2.99096e+09
2.991e+09
2.99103e+09
2.99106e+09
2.99107e+09
2.99108e+09
2.99108e+09
2.99108e+09
2.99109e+09
2.99109e+09
2.99108e+09
2.99108e+09
2.99108e+09
2.99108e+09
2.99108e+09
2.99113e+09
2.99111e+09
2.99111e+09
2.99111e+09
2.99111e+09
2.99111e+09
2.9911e+09
2.9911e+09
2.9911e+09
2.99109e+09
2.99109e+09
2.99109e+09
2.99109e+09
2.99108e+09
2.99108e+09
2.99122e+09
2.99119e+09
2.99117e+09
2.99116e+09
2.99114e+09
2.99113e+09
2.99112e+09
2.99112e+09
2.99111e+09
2.9911e+09
2.9911e+09
2.99109e+09
2.99109e+09
2.99109e+09
2.99108e+09
2.99128e+09
2.99125e+09
2.99122e+09
2.99119e+09
2.99117e+09
2.99116e+09
2.99114e+09
2.99113e+09
2.99112e+09
2.99111e+09
2.99111e+09
2.9911e+09
2.99109e+09
2.99109e+09
2.99108e+09
2.99133e+09
2.99129e+09
2.99125e+09
2.99122e+09
2.9912e+09
2.99118e+09
2.99116e+09
2.99115e+09
2.99113e+09
2.99112e+09
2.99111e+09
2.9911e+09
2.9911e+09
2.99109e+09
2.99109e+09
2.99137e+09
2.99132e+09
2.99128e+09
2.99125e+09
2.99122e+09
2.9912e+09
2.99118e+09
2.99116e+09
2.99114e+09
2.99113e+09
2.99112e+09
2.99111e+09
2.9911e+09
2.99109e+09
2.99109e+09
2.99142e+09
2.99136e+09
2.99132e+09
2.99128e+09
2.99125e+09
2.99122e+09
2.99119e+09
2.99117e+09
2.99115e+09
2.99114e+09
2.99112e+09
2.99111e+09
2.9911e+09
2.99109e+09
2.99109e+09
2.99147e+09
2.99141e+09
2.99136e+09
2.99131e+09
2.99127e+09
2.99124e+09
2.99121e+09
2.99119e+09
2.99117e+09
2.99115e+09
2.99113e+09
2.99112e+09
2.99111e+09
2.9911e+09
2.99109e+09
2.99153e+09
2.99146e+09
2.9914e+09
2.99135e+09
2.99131e+09
2.99127e+09
2.99123e+09
2.9912e+09
2.99118e+09
2.99116e+09
2.99114e+09
2.99112e+09
2.99111e+09
2.9911e+09
2.99109e+09
2.99161e+09
2.99153e+09
2.99146e+09
2.9914e+09
2.99134e+09
2.9913e+09
2.99126e+09
2.99122e+09
2.9912e+09
2.99117e+09
2.99115e+09
2.99113e+09
2.99111e+09
2.9911e+09
2.99109e+09
2.9917e+09
2.9916e+09
2.99152e+09
2.99145e+09
2.99139e+09
2.99134e+09
2.99129e+09
2.99125e+09
2.99122e+09
2.99119e+09
2.99116e+09
2.99114e+09
2.99112e+09
2.9911e+09
2.99109e+09
2.99181e+09
2.9917e+09
2.9916e+09
2.99152e+09
2.99145e+09
2.99138e+09
2.99133e+09
2.99128e+09
2.99124e+09
2.99121e+09
2.99118e+09
2.99115e+09
2.99113e+09
2.99111e+09
2.99109e+09
2.99195e+09
2.99182e+09
2.9917e+09
2.9916e+09
2.99152e+09
2.99144e+09
2.99138e+09
2.99132e+09
2.99127e+09
2.99123e+09
2.99119e+09
2.99116e+09
2.99114e+09
2.99111e+09
2.99109e+09
2.99212e+09
2.99196e+09
2.99183e+09
2.99171e+09
2.9916e+09
2.99151e+09
2.99144e+09
2.99137e+09
2.99131e+09
2.99126e+09
2.99122e+09
2.99118e+09
2.99115e+09
2.99112e+09
2.99109e+09
2.99234e+09
2.99215e+09
2.99199e+09
2.99184e+09
2.99172e+09
2.99161e+09
2.99151e+09
2.99143e+09
2.99136e+09
2.9913e+09
2.99125e+09
2.9912e+09
2.99116e+09
2.99113e+09
2.9911e+09
2.99262e+09
2.99239e+09
2.99219e+09
2.99202e+09
2.99186e+09
2.99173e+09
2.99161e+09
2.99151e+09
2.99142e+09
2.99135e+09
2.99128e+09
2.99123e+09
2.99118e+09
2.99114e+09
2.9911e+09
2.99297e+09
2.9927e+09
2.99246e+09
2.99224e+09
2.99205e+09
2.99189e+09
2.99174e+09
2.99162e+09
2.99151e+09
2.99141e+09
2.99133e+09
2.99126e+09
2.9912e+09
2.99115e+09
2.9911e+09
2.99345e+09
2.99312e+09
2.99282e+09
2.99255e+09
2.99231e+09
2.9921e+09
2.99192e+09
2.99176e+09
2.99162e+09
2.9915e+09
2.9914e+09
2.99131e+09
2.99123e+09
2.99117e+09
2.99111e+09
2.99408e+09
2.99367e+09
2.9933e+09
2.99296e+09
2.99266e+09
2.9924e+09
2.99217e+09
2.99196e+09
2.99178e+09
2.99163e+09
2.9915e+09
2.99138e+09
2.99128e+09
2.99119e+09
2.99112e+09
2.99494e+09
2.99444e+09
2.99398e+09
2.99356e+09
2.99317e+09
2.99283e+09
2.99252e+09
2.99225e+09
2.99202e+09
2.99181e+09
2.99163e+09
2.99148e+09
2.99134e+09
2.99123e+09
2.99113e+09
2.99614e+09
2.99555e+09
2.99497e+09
2.99443e+09
2.99393e+09
2.99347e+09
2.99306e+09
2.9927e+09
2.99238e+09
2.99209e+09
2.99185e+09
2.99163e+09
2.99145e+09
2.99129e+09
2.99115e+09
2.99785e+09
2.99717e+09
2.99648e+09
2.9958e+09
2.99514e+09
2.99453e+09
2.99396e+09
2.99344e+09
2.99298e+09
2.99257e+09
2.99221e+09
2.99189e+09
2.99162e+09
2.99138e+09
2.99118e+09
3.0003e+09
2.99959e+09
2.99883e+09
2.99803e+09
2.99721e+09
2.99638e+09
2.99557e+09
2.99481e+09
2.9941e+09
2.99346e+09
2.99289e+09
2.99239e+09
2.99195e+09
2.99157e+09
2.99124e+09
3.00368e+09
3.00314e+09
3.00251e+09
3.00177e+09
3.00091e+09
2.99995e+09
2.99888e+09
2.99771e+09
2.99653e+09
2.9954e+09
2.99438e+09
2.99347e+09
2.99267e+09
2.99197e+09
2.99136e+09
3.18123e+09
3.16247e+09
3.14363e+09
3.12202e+09
3.0936e+09
3.05201e+09
3.01517e+09
3.00564e+09
3.00273e+09
3.00023e+09
2.99804e+09
2.99612e+09
2.99443e+09
2.99296e+09
2.99168e+09
3.90764e+09
3.90774e+09
3.90544e+09
3.89497e+09
3.88258e+09
3.87621e+09
3.87102e+09
3.84856e+09
3.50282e+09
3.01e+09
3.0048e+09
3.00177e+09
2.99851e+09
2.99534e+09
2.99244e+09
3.90276e+09
3.90594e+09
3.9072e+09
3.90656e+09
3.90439e+09
3.90139e+09
3.89749e+09
3.893e+09
3.88162e+09
3.87604e+09
3.87066e+09
3.85697e+09
3.83526e+09
3.81121e+09
2.99918e+09
3.89096e+09
3.89642e+09
3.89979e+09
3.90162e+09
3.90149e+09
3.90011e+09
3.89733e+09
3.89342e+09
3.88921e+09
3.88586e+09
3.88236e+09
3.87225e+09
3.84969e+09
3.82032e+09
3.0015e+09
3.87869e+09
3.8841e+09
3.88748e+09
3.88999e+09
3.89166e+09
3.89254e+09
3.89217e+09
3.89039e+09
3.88808e+09
3.88558e+09
3.88287e+09
3.87466e+09
3.85282e+09
3.82204e+09
3.00187e+09
3.8693e+09
3.87324e+09
3.87643e+09
3.87931e+09
3.88199e+09
3.8841e+09
3.88531e+09
3.88541e+09
3.88488e+09
3.88387e+09
3.88197e+09
3.87285e+09
3.84942e+09
3.81917e+09
3.00107e+09
3.86629e+09
3.8686e+09
3.87105e+09
3.87331e+09
3.8755e+09
3.87765e+09
3.87958e+09
3.88075e+09
3.88128e+09
3.88108e+09
3.87861e+09
3.86726e+09
3.84416e+09
3.81682e+09
3.00064e+09
3.86527e+09
3.86694e+09
3.86909e+09
3.87072e+09
3.87211e+09
3.87371e+09
3.87539e+09
3.8768e+09
3.87801e+09
3.87852e+09
3.87509e+09
3.86204e+09
3.83931e+09
3.81383e+09
2.9999e+09
3.86475e+09
3.86528e+09
3.86728e+09
3.86941e+09
3.87099e+09
3.87216e+09
3.87331e+09
3.87456e+09
3.87578e+09
3.87577e+09
3.87064e+09
3.85374e+09
3.82798e+09
3.6894e+09
2.99715e+09
3.86478e+09
3.86522e+09
3.86621e+09
3.86808e+09
3.86996e+09
3.87128e+09
3.87206e+09
3.87276e+09
3.87381e+09
3.87521e+09
3.86983e+09
3.85012e+09
3.82419e+09
3.46446e+09
2.99682e+09
3.86399e+09
3.86595e+09
3.86641e+09
3.86716e+09
3.86879e+09
3.87054e+09
3.87206e+09
3.87339e+09
3.87481e+09
3.87327e+09
3.86091e+09
3.83863e+09
3.81744e+09
3.27513e+09
2.99655e+09
3.86191e+09
3.86577e+09
3.86762e+09
3.86818e+09
3.86925e+09
3.87032e+09
3.87085e+09
3.871e+09
3.86944e+09
3.86138e+09
3.84548e+09
3.82759e+09
3.81188e+09
3.0058e+09
2.99576e+09
3.86052e+09
3.86279e+09
3.86551e+09
3.86709e+09
3.86814e+09
3.86941e+09
3.87076e+09
3.87093e+09
3.8644e+09
3.85179e+09
3.83578e+09
3.82036e+09
3.80652e+09
3.00325e+09
2.99492e+09
3.86247e+09
3.86407e+09
3.8663e+09
3.8678e+09
3.86882e+09
3.86946e+09
3.86816e+09
3.86182e+09
3.84993e+09
3.83522e+09
3.82219e+09
3.81147e+09
3.64371e+09
3.00172e+09
2.99445e+09
3.86055e+09
3.86248e+09
3.86429e+09
3.86548e+09
3.86617e+09
3.86631e+09
3.8633e+09
3.85641e+09
3.84685e+09
3.83762e+09
3.82998e+09
3.82288e+09
3.81306e+09
3.43659e+09
2.99679e+09
3.86982e+09
3.8692e+09
3.86845e+09
3.86749e+09
3.86605e+09
3.86376e+09
3.86059e+09
3.85685e+09
3.85277e+09
3.84837e+09
3.8428e+09
3.8349e+09
3.82373e+09
3.80885e+09
2.99994e+09
2.99113e+09
2.99112e+09
2.99111e+09
2.99111e+09
2.99111e+09
2.9911e+09
2.9911e+09
2.9911e+09
2.9911e+09
2.99109e+09
2.99109e+09
2.99109e+09
2.99109e+09
2.99108e+09
2.99108e+09
2.99119e+09
2.99116e+09
2.99115e+09
2.99114e+09
2.99113e+09
2.99112e+09
2.99111e+09
2.99111e+09
2.9911e+09
2.9911e+09
2.99109e+09
2.99109e+09
2.99109e+09
2.99109e+09
2.99108e+09
2.99125e+09
2.99121e+09
2.99119e+09
2.99117e+09
2.99115e+09
2.99114e+09
2.99113e+09
2.99112e+09
2.99111e+09
2.99111e+09
2.9911e+09
2.9911e+09
2.99109e+09
2.99109e+09
2.99108e+09
2.99129e+09
2.99125e+09
2.99122e+09
2.9912e+09
2.99118e+09
2.99116e+09
2.99115e+09
2.99113e+09
2.99112e+09
2.99111e+09
2.99111e+09
2.9911e+09
2.99109e+09
2.99109e+09
2.99108e+09
2.99133e+09
2.99129e+09
2.99126e+09
2.99123e+09
2.9912e+09
2.99118e+09
2.99116e+09
2.99115e+09
2.99113e+09
2.99112e+09
2.99111e+09
2.9911e+09
2.9911e+09
2.99109e+09
2.99109e+09
2.99137e+09
2.99133e+09
2.99129e+09
2.99125e+09
2.99122e+09
2.9912e+09
2.99118e+09
2.99116e+09
2.99114e+09
2.99113e+09
2.99112e+09
2.99111e+09
2.9911e+09
2.99109e+09
2.99109e+09
2.99142e+09
2.99137e+09
2.99132e+09
2.99128e+09
2.99125e+09
2.99122e+09
2.99119e+09
2.99117e+09
2.99115e+09
2.99114e+09
2.99112e+09
2.99111e+09
2.9911e+09
2.99109e+09
2.99109e+09
2.99147e+09
2.99141e+09
2.99136e+09
2.99131e+09
2.99127e+09
2.99124e+09
2.99121e+09
2.99119e+09
2.99117e+09
2.99115e+09
2.99113e+09
2.99112e+09
2.99111e+09
2.9911e+09
2.99109e+09
2.99153e+09
2.99146e+09
2.9914e+09
2.99135e+09
2.9913e+09
2.99127e+09
2.99123e+09
2.9912e+09
2.99118e+09
2.99116e+09
2.99114e+09
2.99112e+09
2.99111e+09
2.9911e+09
2.99109e+09
2.99161e+09
2.99153e+09
2.99146e+09
2.99139e+09
2.99134e+09
2.9913e+09
2.99126e+09
2.99122e+09
2.9912e+09
2.99117e+09
2.99115e+09
2.99113e+09
2.99111e+09
2.9911e+09
2.99109e+09
2.9917e+09
2.9916e+09
2.99152e+09
2.99145e+09
2.99139e+09
2.99133e+09
2.99129e+09
2.99125e+09
2.99122e+09
2.99119e+09
2.99116e+09
2.99114e+09
2.99112e+09
2.9911e+09
2.99109e+09
2.99181e+09
2.9917e+09
2.9916e+09
2.99152e+09
2.99144e+09
2.99138e+09
2.99133e+09
2.99128e+09
2.99124e+09
2.9912e+09
2.99117e+09
2.99115e+09
2.99113e+09
2.99111e+09
2.99109e+09
2.99195e+09
2.99182e+09
2.9917e+09
2.9916e+09
2.99151e+09
2.99144e+09
2.99137e+09
2.99132e+09
2.99127e+09
2.99123e+09
2.99119e+09
2.99116e+09
2.99113e+09
2.99111e+09
2.99109e+09
2.99212e+09
2.99196e+09
2.99183e+09
2.99171e+09
2.9916e+09
2.99151e+09
2.99143e+09
2.99137e+09
2.99131e+09
2.99126e+09
2.99122e+09
2.99118e+09
2.99115e+09
2.99112e+09
2.99109e+09
2.99234e+09
2.99215e+09
2.99199e+09
2.99184e+09
2.99171e+09
2.99161e+09
2.99151e+09
2.99143e+09
2.99136e+09
2.9913e+09
2.99124e+09
2.9912e+09
2.99116e+09
2.99113e+09
2.9911e+09
2.99262e+09
2.99239e+09
2.99219e+09
2.99201e+09
2.99186e+09
2.99173e+09
2.99161e+09
2.99151e+09
2.99142e+09
2.99135e+09
2.99128e+09
2.99123e+09
2.99118e+09
2.99114e+09
2.9911e+09
2.99298e+09
2.9927e+09
2.99246e+09
2.99224e+09
2.99205e+09
2.99189e+09
2.99174e+09
2.99162e+09
2.99151e+09
2.99141e+09
2.99133e+09
2.99126e+09
2.9912e+09
2.99115e+09
2.9911e+09
2.99345e+09
2.99311e+09
2.99281e+09
2.99254e+09
2.99231e+09
2.9921e+09
2.99192e+09
2.99176e+09
2.99162e+09
2.9915e+09
2.9914e+09
2.99131e+09
2.99123e+09
2.99117e+09
2.99111e+09
2.99408e+09
2.99367e+09
2.9933e+09
2.99296e+09
2.99266e+09
2.9924e+09
2.99216e+09
2.99196e+09
2.99178e+09
2.99163e+09
2.99149e+09
2.99138e+09
2.99128e+09
2.99119e+09
2.99112e+09
2.99494e+09
2.99444e+09
2.99398e+09
2.99355e+09
2.99317e+09
2.99282e+09
2.99252e+09
2.99225e+09
2.99201e+09
2.99181e+09
2.99163e+09
2.99148e+09
2.99134e+09
2.99123e+09
2.99113e+09
2.99614e+09
2.99554e+09
2.99497e+09
2.99442e+09
2.99392e+09
2.99347e+09
2.99306e+09
2.99269e+09
2.99237e+09
2.99209e+09
2.99184e+09
2.99163e+09
2.99145e+09
2.99129e+09
2.99115e+09
2.99785e+09
2.99716e+09
2.99647e+09
2.99578e+09
2.99513e+09
2.99451e+09
2.99394e+09
2.99343e+09
2.99297e+09
2.99256e+09
2.9922e+09
2.99189e+09
2.99162e+09
2.99138e+09
2.99118e+09
3.00029e+09
2.99958e+09
2.99881e+09
2.99801e+09
2.99718e+09
2.99635e+09
2.99555e+09
2.99478e+09
2.99408e+09
2.99344e+09
2.99288e+09
2.99238e+09
2.99194e+09
2.99156e+09
2.99123e+09
3.00367e+09
3.00313e+09
3.00249e+09
3.00174e+09
3.00087e+09
2.9999e+09
2.99883e+09
2.99765e+09
2.99647e+09
2.99535e+09
2.99434e+09
2.99344e+09
2.99265e+09
2.99196e+09
2.99136e+09
3.18111e+09
3.16171e+09
3.14191e+09
3.1167e+09
3.0885e+09
3.04614e+09
3.0138e+09
3.00548e+09
3.00259e+09
3.00011e+09
2.99794e+09
2.99604e+09
2.99438e+09
2.99293e+09
2.99167e+09
3.90628e+09
3.9059e+09
3.90139e+09
3.88932e+09
3.87903e+09
3.87333e+09
3.86555e+09
3.84229e+09
3.35235e+09
3.00791e+09
3.00487e+09
3.00185e+09
2.99858e+09
2.99538e+09
2.99246e+09
3.90003e+09
3.90323e+09
3.90453e+09
3.90432e+09
3.90261e+09
3.90019e+09
3.89686e+09
3.89379e+09
3.8891e+09
3.88507e+09
3.87817e+09
3.86284e+09
3.83949e+09
3.81363e+09
2.99979e+09
3.88675e+09
3.89156e+09
3.89474e+09
3.89704e+09
3.89799e+09
3.8975e+09
3.89569e+09
3.89341e+09
3.89089e+09
3.88844e+09
3.88585e+09
3.87768e+09
3.85496e+09
3.82319e+09
3.00214e+09
3.87332e+09
3.87759e+09
3.88075e+09
3.88389e+09
3.88643e+09
3.88829e+09
3.88927e+09
3.88916e+09
3.88853e+09
3.88741e+09
3.88506e+09
3.87644e+09
3.85446e+09
3.82338e+09
3.00225e+09
3.86646e+09
3.869e+09
3.87111e+09
3.87362e+09
3.87639e+09
3.87916e+09
3.88168e+09
3.88363e+09
3.8848e+09
3.88517e+09
3.88398e+09
3.87596e+09
3.85356e+09
3.82215e+09
3.00184e+09
3.86352e+09
3.86575e+09
3.86749e+09
3.86902e+09
3.871e+09
3.87357e+09
3.87646e+09
3.87914e+09
3.88129e+09
3.88251e+09
3.88147e+09
3.87211e+09
3.84892e+09
3.81935e+09
3.0012e+09
3.86176e+09
3.86394e+09
3.86642e+09
3.86825e+09
3.86947e+09
3.871e+09
3.87346e+09
3.87609e+09
3.87837e+09
3.87972e+09
3.87753e+09
3.86522e+09
3.8419e+09
3.81537e+09
3.00032e+09
3.86214e+09
3.86255e+09
3.8647e+09
3.86761e+09
3.86976e+09
3.87099e+09
3.87226e+09
3.87426e+09
3.87629e+09
3.87663e+09
3.87089e+09
3.85409e+09
3.82851e+09
3.72369e+09
2.9972e+09
3.86217e+09
3.86254e+09
3.86359e+09
3.86556e+09
3.86799e+09
3.86992e+09
3.87117e+09
3.87231e+09
3.87348e+09
3.87429e+09
3.86981e+09
3.85184e+09
3.82586e+09
3.5034e+09
2.99688e+09
3.86184e+09
3.86362e+09
3.86399e+09
3.86427e+09
3.86578e+09
3.86798e+09
3.86993e+09
3.87136e+09
3.87305e+09
3.87355e+09
3.86509e+09
3.84372e+09
3.82018e+09
3.32609e+09
2.99663e+09
3.86044e+09
3.86424e+09
3.86532e+09
3.86534e+09
3.86647e+09
3.8683e+09
3.8695e+09
3.87006e+09
3.87037e+09
3.86644e+09
3.85279e+09
3.83293e+09
3.81475e+09
3.0269e+09
2.9962e+09
3.85907e+09
3.8624e+09
3.86469e+09
3.86532e+09
3.86629e+09
3.86748e+09
3.86876e+09
3.87024e+09
3.8691e+09
3.85969e+09
3.84311e+09
3.82525e+09
3.80946e+09
3.00447e+09
2.9953e+09
3.8623e+09
3.86441e+09
3.86583e+09
3.86665e+09
3.86745e+09
3.86817e+09
3.86856e+09
3.8658e+09
3.85731e+09
3.84255e+09
3.8269e+09
3.81371e+09
3.67607e+09
3.0018e+09
2.99448e+09
3.861e+09
3.86266e+09
3.86399e+09
3.86508e+09
3.86583e+09
3.86611e+09
3.86462e+09
3.85965e+09
3.85041e+09
3.83957e+09
3.82996e+09
3.82151e+09
3.81187e+09
3.36867e+09
2.99669e+09
3.86978e+09
3.86903e+09
3.86804e+09
3.86689e+09
3.86534e+09
3.86315e+09
3.86014e+09
3.85628e+09
3.85187e+09
3.84718e+09
3.84153e+09
3.83389e+09
3.82311e+09
3.80854e+09
2.99986e+09
2.9912e+09
2.99118e+09
2.99116e+09
2.99115e+09
2.99114e+09
2.99113e+09
2.99112e+09
2.99111e+09
2.99111e+09
2.9911e+09
2.9911e+09
2.99109e+09
2.99109e+09
2.99109e+09
2.99108e+09
2.99123e+09
2.9912e+09
2.99118e+09
2.99116e+09
2.99115e+09
2.99114e+09
2.99113e+09
2.99112e+09
2.99111e+09
2.9911e+09
2.9911e+09
2.99109e+09
2.99109e+09
2.99109e+09
2.99108e+09
2.99126e+09
2.99123e+09
2.9912e+09
2.99118e+09
2.99117e+09
2.99115e+09
2.99114e+09
2.99113e+09
2.99112e+09
2.99111e+09
2.9911e+09
2.9911e+09
2.99109e+09
2.99109e+09
2.99108e+09
2.9913e+09
2.99126e+09
2.99123e+09
2.99121e+09
2.99118e+09
2.99117e+09
2.99115e+09
2.99114e+09
2.99113e+09
2.99112e+09
2.99111e+09
2.9911e+09
2.99109e+09
2.99109e+09
2.99108e+09
2.99134e+09
2.99129e+09
2.99126e+09
2.99123e+09
2.9912e+09
2.99118e+09
2.99116e+09
2.99115e+09
2.99113e+09
2.99112e+09
2.99111e+09
2.9911e+09
2.9911e+09
2.99109e+09
2.99109e+09
2.99138e+09
2.99133e+09
2.99129e+09
2.99125e+09
2.99122e+09
2.9912e+09
2.99118e+09
2.99116e+09
2.99114e+09
2.99113e+09
2.99112e+09
2.99111e+09
2.9911e+09
2.99109e+09
2.99109e+09
2.99142e+09
2.99137e+09
2.99132e+09
2.99128e+09
2.99125e+09
2.99122e+09
2.99119e+09
2.99117e+09
2.99115e+09
2.99114e+09
2.99112e+09
2.99111e+09
2.9911e+09
2.99109e+09
2.99109e+09
2.99147e+09
2.99141e+09
2.99136e+09
2.99131e+09
2.99127e+09
2.99124e+09
2.99121e+09
2.99119e+09
2.99117e+09
2.99115e+09
2.99113e+09
2.99112e+09
2.99111e+09
2.9911e+09
2.99109e+09
2.99153e+09
2.99146e+09
2.9914e+09
2.99135e+09
2.9913e+09
2.99127e+09
2.99123e+09
2.9912e+09
2.99118e+09
2.99116e+09
2.99114e+09
2.99112e+09
2.99111e+09
2.9911e+09
2.99109e+09
2.99161e+09
2.99153e+09
2.99146e+09
2.99139e+09
2.99134e+09
2.9913e+09
2.99126e+09
2.99122e+09
2.99119e+09
2.99117e+09
2.99115e+09
2.99113e+09
2.99111e+09
2.9911e+09
2.99109e+09
2.9917e+09
2.9916e+09
2.99152e+09
2.99145e+09
2.99139e+09
2.99133e+09
2.99129e+09
2.99125e+09
2.99121e+09
2.99119e+09
2.99116e+09
2.99114e+09
2.99112e+09
2.9911e+09
2.99109e+09
2.99181e+09
2.9917e+09
2.9916e+09
2.99152e+09
2.99144e+09
2.99138e+09
2.99133e+09
2.99128e+09
2.99124e+09
2.9912e+09
2.99117e+09
2.99115e+09
2.99113e+09
2.99111e+09
2.99109e+09
2.99195e+09
2.99182e+09
2.9917e+09
2.9916e+09
2.99151e+09
2.99144e+09
2.99137e+09
2.99132e+09
2.99127e+09
2.99123e+09
2.99119e+09
2.99116e+09
2.99113e+09
2.99111e+09
2.99109e+09
2.99212e+09
2.99196e+09
2.99182e+09
2.99171e+09
2.9916e+09
2.99151e+09
2.99143e+09
2.99137e+09
2.99131e+09
2.99126e+09
2.99122e+09
2.99118e+09
2.99115e+09
2.99112e+09
2.99109e+09
2.99234e+09
2.99215e+09
2.99198e+09
2.99184e+09
2.99171e+09
2.9916e+09
2.99151e+09
2.99143e+09
2.99136e+09
2.9913e+09
2.99124e+09
2.9912e+09
2.99116e+09
2.99113e+09
2.9911e+09
2.99262e+09
2.99239e+09
2.99219e+09
2.99201e+09
2.99186e+09
2.99172e+09
2.99161e+09
2.99151e+09
2.99142e+09
2.99135e+09
2.99128e+09
2.99123e+09
2.99118e+09
2.99114e+09
2.9911e+09
2.99298e+09
2.9927e+09
2.99246e+09
2.99224e+09
2.99205e+09
2.99188e+09
2.99174e+09
2.99161e+09
2.99151e+09
2.99141e+09
2.99133e+09
2.99126e+09
2.9912e+09
2.99115e+09
2.9911e+09
2.99345e+09
2.99311e+09
2.99281e+09
2.99254e+09
2.99231e+09
2.9921e+09
2.99192e+09
2.99176e+09
2.99162e+09
2.9915e+09
2.9914e+09
2.99131e+09
2.99123e+09
2.99117e+09
2.99111e+09
2.99408e+09
2.99367e+09
2.9933e+09
2.99296e+09
2.99266e+09
2.99239e+09
2.99216e+09
2.99196e+09
2.99178e+09
2.99163e+09
2.99149e+09
2.99138e+09
2.99128e+09
2.99119e+09
2.99112e+09
2.99494e+09
2.99444e+09
2.99397e+09
2.99355e+09
2.99316e+09
2.99282e+09
2.99251e+09
2.99224e+09
2.99201e+09
2.99181e+09
2.99163e+09
2.99148e+09
2.99134e+09
2.99123e+09
2.99113e+09
2.99614e+09
2.99554e+09
2.99496e+09
2.99442e+09
2.99391e+09
2.99346e+09
2.99305e+09
2.99269e+09
2.99236e+09
2.99208e+09
2.99184e+09
2.99163e+09
2.99144e+09
2.99128e+09
2.99115e+09
2.99785e+09
2.99715e+09
2.99646e+09
2.99577e+09
2.99511e+09
2.9945e+09
2.99393e+09
2.99342e+09
2.99296e+09
2.99255e+09
2.9922e+09
2.99188e+09
2.99161e+09
2.99138e+09
2.99118e+09
3.00028e+09
2.99957e+09
2.9988e+09
2.99798e+09
2.99715e+09
2.99632e+09
2.99552e+09
2.99476e+09
2.99406e+09
2.99342e+09
2.99286e+09
2.99237e+09
2.99194e+09
2.99156e+09
2.99123e+09
3.00366e+09
3.00311e+09
3.00246e+09
3.0017e+09
3.00083e+09
2.99985e+09
2.99877e+09
2.99759e+09
2.9964e+09
2.9953e+09
2.99429e+09
2.99341e+09
2.99263e+09
2.99195e+09
2.99136e+09
3.18049e+09
3.15769e+09
3.14126e+09
3.11155e+09
3.08236e+09
3.04167e+09
3.01138e+09
3.0053e+09
3.0024e+09
2.99993e+09
2.9978e+09
2.99593e+09
2.99431e+09
2.99289e+09
2.99165e+09
3.90456e+09
3.90382e+09
3.89946e+09
3.88768e+09
3.87762e+09
3.87277e+09
3.86348e+09
3.84116e+09
3.29642e+09
3.00771e+09
3.00481e+09
3.00179e+09
2.99853e+09
2.99535e+09
2.99245e+09
3.89601e+09
3.89958e+09
3.90147e+09
3.90188e+09
3.90066e+09
3.89896e+09
3.89643e+09
3.89449e+09
3.89164e+09
3.88798e+09
3.88116e+09
3.86549e+09
3.84132e+09
3.81443e+09
2.99995e+09
3.8818e+09
3.88635e+09
3.88979e+09
3.8922e+09
3.89394e+09
3.89457e+09
3.89392e+09
3.8927e+09
3.89107e+09
3.8892e+09
3.88708e+09
3.87981e+09
3.85789e+09
3.82537e+09
3.00271e+09
3.87401e+09
3.87659e+09
3.87873e+09
3.88097e+09
3.8834e+09
3.88562e+09
3.88714e+09
3.8879e+09
3.88801e+09
3.8876e+09
3.88622e+09
3.87916e+09
3.85774e+09
3.82553e+09
3.00277e+09
3.86857e+09
3.87031e+09
3.87193e+09
3.87378e+09
3.87591e+09
3.87845e+09
3.88098e+09
3.88311e+09
3.88461e+09
3.88536e+09
3.88464e+09
3.87741e+09
3.85571e+09
3.82399e+09
3.00237e+09
3.86408e+09
3.86587e+09
3.86751e+09
3.86901e+09
3.87064e+09
3.87291e+09
3.87566e+09
3.87852e+09
3.88107e+09
3.88276e+09
3.88241e+09
3.87447e+09
3.852e+09
3.82143e+09
3.00172e+09
3.86259e+09
3.8641e+09
3.86601e+09
3.8678e+09
3.86906e+09
3.87031e+09
3.87275e+09
3.87568e+09
3.87835e+09
3.88018e+09
3.87895e+09
3.86786e+09
3.84445e+09
3.81679e+09
3.0006e+09
3.86333e+09
3.86388e+09
3.8652e+09
3.86739e+09
3.86937e+09
3.87041e+09
3.87149e+09
3.87369e+09
3.87626e+09
3.87703e+09
3.87147e+09
3.85471e+09
3.82929e+09
3.79081e+09
2.99729e+09
3.86469e+09
3.86454e+09
3.86448e+09
3.86521e+09
3.86701e+09
3.86894e+09
3.87022e+09
3.87154e+09
3.8733e+09
3.87412e+09
3.86899e+09
3.85124e+09
3.82545e+09
3.55304e+09
2.99695e+09
3.86477e+09
3.86418e+09
3.86346e+09
3.86307e+09
3.86385e+09
3.86601e+09
3.86809e+09
3.86965e+09
3.87142e+09
3.8731e+09
3.86721e+09
3.84718e+09
3.82236e+09
3.37304e+09
2.99669e+09
3.86293e+09
3.86262e+09
3.8624e+09
3.86265e+09
3.86384e+09
3.86619e+09
3.86818e+09
3.86898e+09
3.86956e+09
3.86839e+09
3.85844e+09
3.83832e+09
3.81753e+09
3.09152e+09
2.99629e+09
3.85993e+09
3.86026e+09
3.86084e+09
3.86162e+09
3.86322e+09
3.8654e+09
3.86654e+09
3.86756e+09
3.86971e+09
3.86718e+09
3.85366e+09
3.83357e+09
3.81429e+09
3.00636e+09
2.99587e+09
3.86171e+09
3.86239e+09
3.86317e+09
3.86443e+09
3.86575e+09
3.86681e+09
3.86767e+09
3.86852e+09
3.86601e+09
3.8552e+09
3.83691e+09
3.81865e+09
3.76472e+09
3.00203e+09
2.99455e+09
3.8606e+09
3.86184e+09
3.86304e+09
3.86438e+09
3.86529e+09
3.86587e+09
3.86608e+09
3.86411e+09
3.85736e+09
3.8454e+09
3.83251e+09
3.82138e+09
3.81115e+09
3.35989e+09
2.99668e+09
3.86948e+09
3.86853e+09
3.86765e+09
3.86662e+09
3.86525e+09
3.86342e+09
3.8609e+09
3.85723e+09
3.85237e+09
3.84696e+09
3.84102e+09
3.83345e+09
3.82295e+09
3.80852e+09
2.99985e+09
2.99124e+09
2.99121e+09
2.99119e+09
2.99117e+09
2.99115e+09
2.99114e+09
2.99113e+09
2.99112e+09
2.99111e+09
2.99111e+09
2.9911e+09
2.9911e+09
2.99109e+09
2.99109e+09
2.99108e+09
2.99126e+09
2.99122e+09
2.9912e+09
2.99118e+09
2.99116e+09
2.99115e+09
2.99114e+09
2.99113e+09
2.99112e+09
2.99111e+09
2.9911e+09
2.9911e+09
2.99109e+09
2.99109e+09
2.99108e+09
2.99128e+09
2.99125e+09
2.99122e+09
2.99119e+09
2.99117e+09
2.99116e+09
2.99114e+09
2.99113e+09
2.99112e+09
2.99111e+09
2.99111e+09
2.9911e+09
2.99109e+09
2.99109e+09
2.99108e+09
2.99131e+09
2.99127e+09
2.99124e+09
2.99121e+09
2.99119e+09
2.99117e+09
2.99115e+09
2.99114e+09
2.99113e+09
2.99112e+09
2.99111e+09
2.9911e+09
2.9911e+09
2.99109e+09
2.99108e+09
2.99134e+09
2.9913e+09
2.99126e+09
2.99123e+09
2.99121e+09
2.99118e+09