/*--------------------------------*- C++ -*----------------------------------*\
  =========                 |
  \\      /  F ield         | OpenFOAM: The Open Source CFD Toolbox
   \\    /   O peration     | Website:  https://openfoam.org
    \\  /    A nd           | Version:  6
     \\/     M anipulation  |
\*---------------------------------------------------------------------------*/
FoamFile
{
    version     2.0;
    format      ascii;
    class       volScalarField;
    location    "349.997385708392244";
    object      p;
}
// * * * * * * * * * * * * * * * * * * * * * * * * * * * * * * * * * * * * * //

dimensions      [0 2 -2 0 0 0 0];

internalField   nonuniform List<scalar> 
120400
(
0
-1.784
-2.51015
-2.85886
-3.0475
-3.15826
-3.22686
-3.27076
-3.29933
-3.31796
-3.32999
-3.33753
-3.34201
-3.34439
-3.34534
-2.77719
-2.94641
-3.10936
-3.22561
-3.30456
-3.3579
-3.39406
-3.41862
-3.43523
-3.44635
-3.45365
-3.45827
-3.46104
-3.46251
-3.4631
-3.4469
-3.45947
-3.49125
-3.52263
-3.54832
-3.56788
-3.58223
-3.59249
-3.59969
-3.60463
-3.60791
-3.61002
-3.61128
-3.61196
-3.61223
-3.73586
-3.72886
-3.73147
-3.73741
-3.74369
-3.74916
-3.75351
-3.75679
-3.75917
-3.76084
-3.76197
-3.76269
-3.76313
-3.76337
-3.76346
-3.91705
-3.90768
-3.90345
-3.90195
-3.90174
-3.90204
-3.90249
-3.90292
-3.90327
-3.90353
-3.90372
-3.90384
-3.90391
-3.90395
-3.90397
-4.05442
-4.04571
-4.04022
-4.03679
-4.03464
-4.03327
-4.03239
-4.03181
-4.03143
-4.03118
-4.03101
-4.03091
-4.03085
-4.03081
-4.0308
-4.16915
-4.1617
-4.15651
-4.1529
-4.1504
-4.14866
-4.14744
-4.1466
-4.14602
-4.14562
-4.14536
-4.14519
-4.14509
-4.14503
-4.14501
-4.27028
-4.26409
-4.2596
-4.25635
-4.25402
-4.25236
-4.25118
-4.25034
-4.24976
-4.24936
-4.2491
-4.24893
-4.24883
-4.24877
-4.24875
-4.36238
-4.35729
-4.35353
-4.35077
-4.34876
-4.34731
-4.34627
-4.34554
-4.34502
-4.34467
-4.34444
-4.34429
-4.34419
-4.34415
-4.34412
-4.44806
-4.4439
-4.4408
-4.4385
-4.43682
-4.4356
-4.43472
-4.4341
-4.43367
-4.43337
-4.43317
-4.43304
-4.43296
-4.43292
-4.4329
-4.52898
-4.52557
-4.52302
-4.52113
-4.51974
-4.51873
-4.518
-4.51749
-4.51712
-4.51688
-4.51671
-4.51661
-4.51654
-4.51651
-4.51649
-4.60625
-4.60345
-4.60135
-4.59979
-4.59865
-4.59782
-4.59722
-4.5968
-4.5965
-4.5963
-4.59616
-4.59607
-4.59602
-4.59599
-4.59598
-4.68065
-4.67835
-4.67662
-4.67534
-4.6744
-4.67372
-4.67323
-4.67288
-4.67264
-4.67247
-4.67236
-4.67229
-4.67224
-4.67222
-4.67221
-4.75277
-4.75087
-4.74945
-4.7484
-4.74762
-4.74706
-4.74666
-4.74637
-4.74617
-4.74604
-4.74595
-4.74589
-4.74585
-4.74584
-4.74583
-4.82306
-4.8215
-4.82032
-4.81946
-4.81882
-4.81836
-4.81803
-4.81779
-4.81763
-4.81752
-4.81744
-4.81739
-4.81736
-4.81735
-4.81734
-4.89187
-4.89058
-4.88962
-4.8889
-4.88838
-4.888
-4.88772
-4.88753
-4.8874
-4.88731
-4.88724
-4.88721
-4.88718
-4.88717
-4.88716
-4.95949
-4.95843
-4.95763
-4.95704
-4.95661
-4.95629
-4.95607
-4.95591
-4.9558
-4.95573
-4.95568
-4.95565
-4.95563
-4.95562
-4.95561
-5.02615
-5.02527
-5.02461
-5.02412
-5.02376
-5.0235
-5.02331
-5.02318
-5.02309
-5.02302
-5.02298
-5.02296
-5.02294
-5.02293
-5.02293
-5.09203
-5.0913
-5.09075
-5.09034
-5.09003
-5.08981
-5.08965
-5.08954
-5.08946
-5.0894
-5.08937
-5.08935
-5.08933
-5.08933
-5.08932
-5.15733
-5.15672
-5.15625
-5.15589
-5.15561
-5.15541
-5.15526
-5.15516
-5.15508
-5.15503
-5.155
-5.15497
-5.15496
-5.15495
-5.15495
-5.22221
-5.22169
-5.22127
-5.22093
-5.22065
-5.22044
-5.22027
-5.22015
-5.22007
-5.22
-5.21996
-5.21994
-5.21992
-5.21991
-5.21991
-5.28685
-5.28642
-5.28603
-5.28566
-5.28533
-5.28504
-5.28479
-5.28459
-5.28444
-5.28433
-5.28426
-5.28421
-5.28418
-5.28417
-5.28416
-5.35145
-5.35115
-5.35082
-5.35046
-5.35002
-5.34951
-5.34893
-5.34844
-5.34807
-5.3478
-5.34761
-5.34749
-5.34742
-5.34738
-5.34736
-5.41615
-5.4161
-5.41611
-5.4161
-5.41607
-5.41568
-5.41296
-5.4112
-5.41007
-5.40932
-5.40884
-5.40854
-5.40835
-5.40826
-5.40822
-5.46521
-5.46515
-5.46516
-5.46515
-5.46514
-5.46513
-5.46513
-5.46512
-5.46512
-5.46449
-5.46408
-5.46382
-5.46367
-5.46359
-5.46355
-5.51423
-5.51421
-5.51419
-5.51418
-5.51418
-5.51417
-5.51417
-5.51417
-5.51417
-5.51425
-5.51419
-5.51419
-5.51419
-5.51418
-5.51417
-5.56332
-5.5633
-5.56328
-5.56327
-5.56325
-5.56324
-5.56323
-5.56323
-5.56322
-5.56322
-5.56322
-5.56321
-5.56321
-5.56321
-5.56321
-5.61241
-5.61239
-5.61237
-5.61235
-5.61234
-5.61232
-5.61231
-5.61231
-5.6123
-5.6123
-5.6123
-5.6123
-5.6123
-5.6123
-5.6123
-5.66149
-5.66146
-5.66144
-5.66143
-5.66142
-5.6614
-5.6614
-5.66139
-5.66138
-5.66138
-5.66138
-5.66138
-5.66138
-5.66138
-5.66138
-5.71055
-5.71053
-5.71051
-5.7105
-5.71049
-5.71048
-5.71047
-5.71047
-5.71047
-5.71046
-5.71046
-5.71046
-5.71046
-5.71046
-5.71046
-5.75961
-5.75959
-5.75958
-5.75957
-5.75956
-5.75955
-5.75955
-5.75954
-5.75954
-5.75954
-5.75953
-5.75953
-5.75953
-5.75953
-5.75953
-5.80867
-5.80865
-5.80864
-5.80863
-5.80863
-5.80862
-5.80861
-5.80861
-5.8086
-5.8086
-5.8086
-5.8086
-5.8086
-5.8086
-5.8086
-5.85773
-5.85772
-5.8577
-5.85769
-5.85769
-5.85768
-5.85768
-5.85767
-5.85767
-5.85767
-5.85767
-5.85767
-5.85767
-5.85767
-5.85767
-5.90678
-5.90677
-5.90676
-5.90675
-5.90675
-5.90674
-5.90673
-5.90673
-5.90673
-5.90672
-5.90672
-5.90672
-5.90672
-5.90672
-5.90672
-5.95583
-5.95582
-5.95582
-5.95581
-5.9558
-5.95579
-5.95579
-5.95578
-5.95578
-5.95578
-5.95577
-5.95577
-5.95577
-5.95578
-5.95578
-6.00487
-6.00486
-6.00486
-6.00485
-6.00485
-6.00484
-6.00484
-6.00483
-6.00483
-6.00482
-6.00482
-6.00482
-6.00482
-6.00483
-6.00483
-6.05391
-6.05391
-6.0539
-6.05389
-6.05389
-6.05388
-6.05387
-6.05387
-6.05387
-6.05387
-6.05387
-6.05387
-6.05387
-6.05387
-6.05387
-6.10296
-6.10295
-6.10294
-6.10293
-6.10292
-6.10292
-6.10292
-6.10292
-6.10292
-6.10292
-6.10292
-6.10292
-6.10292
-6.10292
-6.10292
-6.15199
-6.15197
-6.15196
-6.15195
-6.15195
-6.15195
-6.15195
-6.15195
-6.15195
-6.15195
-6.15195
-6.15195
-6.15195
-6.15195
-6.15195
-6.20102
-6.201
-6.20099
-6.20098
-6.20097
-6.20098
-6.20098
-6.20099
-6.201
-6.20101
-6.20102
-6.20103
-6.20104
-6.20104
-6.20105
-2.38939
-2.65912
-2.89995
-3.06398
-3.17153
-3.24231
-3.28935
-3.32082
-3.34187
-3.35585
-3.36497
-3.37072
-3.37414
-3.37595
-3.37667
-3.11614
-3.16839
-3.2482
-3.31738
-3.36979
-3.40763
-3.43438
-3.45303
-3.46586
-3.47453
-3.48025
-3.48389
-3.48606
-3.48721
-3.48767
-3.51725
-3.51977
-3.53874
-3.56025
-3.57909
-3.594
-3.60521
-3.61334
-3.61909
-3.62306
-3.6257
-3.62739
-3.6284
-3.62894
-3.62915
-3.75802
-3.75018
-3.7507
-3.75455
-3.75913
-3.76329
-3.76668
-3.76927
-3.77116
-3.77248
-3.77337
-3.77395
-3.77429
-3.77447
-3.77454
-3.92687
-3.91753
-3.91293
-3.91097
-3.91032
-3.91026
-3.91041
-3.91062
-3.91081
-3.91095
-3.91105
-3.91112
-3.91116
-3.91117
-3.91118
-4.05983
-4.0512
-4.04566
-4.04213
-4.03986
-4.03839
-4.03742
-4.03677
-4.03633
-4.03603
-4.03584
-4.03571
-4.03564
-4.03559
-4.03557
-4.17255
-4.16515
-4.15996
-4.15633
-4.1538
-4.15202
-4.15078
-4.14991
-4.14931
-4.1489
-4.14863
-4.14845
-4.14834
-4.14828
-4.14825
-4.27259
-4.26642
-4.26193
-4.25869
-4.25635
-4.25468
-4.25349
-4.25264
-4.25206
-4.25165
-4.25138
-4.25121
-4.2511
-4.25104
-4.25102
-4.36403
-4.35896
-4.3552
-4.35244
-4.35043
-4.34897
-4.34793
-4.34719
-4.34667
-4.34631
-4.34608
-4.34592
-4.34583
-4.34578
-4.34575
-4.4493
-4.44513
-4.44202
-4.43972
-4.43804
-4.43682
-4.43594
-4.43532
-4.43488
-4.43458
-4.43438
-4.43425
-4.43417
-4.43413
-4.43411
-4.52993
-4.52651
-4.52395
-4.52205
-4.52066
-4.51965
-4.51892
-4.51841
-4.51804
-4.51779
-4.51763
-4.51752
-4.51745
-4.51742
-4.5174
-4.60699
-4.60418
-4.60207
-4.60051
-4.59937
-4.59853
-4.59794
-4.59751
-4.59721
-4.59701
-4.59687
-4.59678
-4.59673
-4.5967
-4.59669
-4.68124
-4.67892
-4.67719
-4.67591
-4.67497
-4.67428
-4.67379
-4.67344
-4.67319
-4.67303
-4.67291
-4.67284
-4.6728
-4.67278
-4.67276
-4.75325
-4.75134
-4.74991
-4.74885
-4.74808
-4.74752
-4.74711
-4.74682
-4.74662
-4.74649
-4.7464
-4.74634
-4.7463
-4.74628
-4.74627
-4.82345
-4.82188
-4.8207
-4.81983
-4.81919
-4.81873
-4.81839
-4.81816
-4.81799
-4.81788
-4.8178
-4.81776
-4.81773
-4.81771
-4.8177
-4.8922
-4.8909
-4.88992
-4.88921
-4.88868
-4.8883
-4.88803
-4.88783
-4.8877
-4.88761
-4.88755
-4.88751
-4.88748
-4.88747
-4.88747
-4.95976
-4.95869
-4.95788
-4.95729
-4.95686
-4.95654
-4.95632
-4.95616
-4.95605
-4.95598
-4.95593
-4.95589
-4.95588
-4.95586
-4.95586
-5.02637
-5.02548
-5.02481
-5.02432
-5.02396
-5.0237
-5.02352
-5.02339
-5.0233
-5.02323
-5.02319
-5.02317
-5.02315
-5.02314
-5.02314
-5.09221
-5.09148
-5.09092
-5.09051
-5.0902
-5.08998
-5.08982
-5.08971
-5.08963
-5.08957
-5.08954
-5.08952
-5.0895
-5.08949
-5.08949
-5.15747
-5.15686
-5.15638
-5.15602
-5.15574
-5.15554
-5.15539
-5.15529
-5.15521
-5.15516
-5.15513
-5.15511
-5.1551
-5.15509
-5.15508
-5.22232
-5.22179
-5.22137
-5.22102
-5.22075
-5.22053
-5.22037
-5.22025
-5.22016
-5.2201
-5.22006
-5.22003
-5.22001
-5.22
-5.22
-5.28692
-5.28648
-5.28608
-5.28572
-5.28538
-5.28509
-5.28484
-5.28464
-5.28449
-5.28439
-5.28431
-5.28426
-5.28423
-5.28422
-5.28421
-5.35148
-5.35117
-5.35084
-5.35047
-5.35002
-5.3495
-5.34893
-5.34844
-5.34806
-5.3478
-5.34761
-5.34749
-5.34742
-5.34738
-5.34736
-5.41612
-5.41611
-5.41608
-5.41607
-5.41605
-5.4156
-5.41287
-5.41112
-5.41001
-5.40927
-5.40879
-5.40849
-5.40832
-5.40822
-5.40818
-5.46518
-5.46516
-5.46514
-5.46513
-5.46513
-5.46512
-5.46512
-5.46511
-5.46512
-5.46448
-5.46407
-5.46381
-5.46365
-5.46357
-5.46354
-5.51422
-5.51419
-5.51418
-5.51417
-5.51417
-5.51417
-5.51417
-5.51417
-5.51417
-5.5142
-5.51418
-5.51417
-5.51418
-5.51417
-5.51416
-5.56331
-5.56328
-5.56326
-5.56325
-5.56324
-5.56323
-5.56322
-5.56321
-5.56321
-5.56321
-5.56321
-5.56321
-5.56321
-5.56321
-5.56321
-5.61241
-5.61238
-5.61235
-5.61233
-5.61232
-5.61231
-5.6123
-5.61229
-5.61229
-5.61228
-5.61228
-5.61228
-5.61228
-5.61228
-5.61228
-5.66148
-5.66145
-5.66143
-5.66141
-5.6614
-5.66139
-5.66138
-5.66137
-5.66136
-5.66136
-5.66136
-5.66136
-5.66136
-5.66136
-5.66136
-5.71054
-5.71052
-5.71051
-5.71049
-5.71048
-5.71047
-5.71046
-5.71045
-5.71045
-5.71044
-5.71044
-5.71044
-5.71044
-5.71044
-5.71044
-5.7596
-5.75958
-5.75957
-5.75956
-5.75955
-5.75954
-5.75954
-5.75953
-5.75953
-5.75952
-5.75952
-5.75952
-5.75952
-5.75952
-5.75952
-5.80866
-5.80864
-5.80863
-5.80862
-5.80861
-5.80861
-5.8086
-5.8086
-5.80859
-5.80859
-5.80859
-5.80859
-5.80859
-5.80859
-5.80859
-5.85772
-5.8577
-5.85769
-5.85768
-5.85767
-5.85767
-5.85766
-5.85766
-5.85766
-5.85766
-5.85766
-5.85766
-5.85765
-5.85765
-5.85765
-5.90678
-5.90677
-5.90675
-5.90674
-5.90673
-5.90673
-5.90672
-5.90672
-5.90672
-5.90672
-5.90672
-5.90672
-5.90672
-5.90672
-5.90672
-5.95583
-5.95582
-5.95581
-5.9558
-5.95579
-5.95579
-5.95578
-5.95577
-5.95577
-5.95577
-5.95577
-5.95577
-5.95577
-5.95577
-5.95577
-6.00487
-6.00487
-6.00486
-6.00485
-6.00485
-6.00484
-6.00483
-6.00483
-6.00482
-6.00482
-6.00482
-6.00482
-6.00482
-6.00482
-6.00482
-6.05391
-6.05391
-6.0539
-6.0539
-6.05389
-6.05388
-6.05387
-6.05387
-6.05387
-6.05387
-6.05386
-6.05386
-6.05386
-6.05387
-6.05387
-6.10296
-6.10295
-6.10294
-6.10293
-6.10293
-6.10292
-6.10292
-6.10292
-6.10292
-6.10292
-6.10292
-6.10292
-6.10292
-6.10292
-6.10292
-6.152
-6.15198
-6.15197
-6.15196
-6.15196
-6.15195
-6.15195
-6.15195
-6.15195
-6.15195
-6.15195
-6.15195
-6.15195
-6.15195
-6.15195
-6.20103
-6.20101
-6.201
-6.20098
-6.20098
-6.20098
-6.20098
-6.20099
-6.201
-6.20101
-6.20102
-6.20103
-6.20103
-6.20104
-6.20105
-3.09483
-3.14705
-3.22311
-3.2885
-3.33795
-3.37365
-3.39889
-3.41649
-3.4286
-3.4368
-3.44221
-3.44565
-3.4477
-3.44879
-3.44921
-3.37251
-3.38544
-3.41779
-3.45069
-3.4781
-3.49916
-3.51468
-3.5258
-3.53361
-3.53895
-3.54251
-3.54478
-3.54614
-3.54686
-3.54714
-3.61476
-3.61142
-3.61942
-3.63062
-3.64131
-3.65019
-3.65708
-3.66219
-3.66585
-3.66839
-3.67009
-3.67119
-3.67184
-3.67219
-3.67233
-3.80143
-3.79317
-3.79145
-3.79272
-3.795
-3.79732
-3.79931
-3.80088
-3.80204
-3.80287
-3.80343
-3.80379
-3.80401
-3.80413
-3.80418
-3.94952
-3.94055
-3.93569
-3.93321
-3.93203
-3.93149
-3.93127
-3.93119
-3.93117
-3.93117
-3.93118
-3.93118
-3.93118
-3.93117
-3.93117
-4.07324
-4.06499
-4.05958
-4.05605
-4.05374
-4.0522
-4.05116
-4.05046
-4.04999
-4.04966
-4.04945
-4.04931
-4.04922
-4.04918
-4.04915
-4.18123
-4.17411
-4.16909
-4.16558
-4.1631
-4.16137
-4.16015
-4.15929
-4.1587
-4.15829
-4.15802
-4.15785
-4.15774
-4.15768
-4.15765
-4.27857
-4.2726
-4.26825
-4.26511
-4.26284
-4.26122
-4.26006
-4.25925
-4.25867
-4.25828
-4.25802
-4.25785
-4.25774
-4.25769
-4.25766
-4.36835
-4.36339
-4.35973
-4.35705
-4.3551
-4.35369
-4.35268
-4.35196
-4.35146
-4.35111
-4.35088
-4.35073
-4.35064
-4.35059
-4.35057
-4.4525
-4.44842
-4.44538
-4.44313
-4.44149
-4.4403
-4.43945
-4.43884
-4.43841
-4.43812
-4.43792
-4.4378
-4.43772
-4.43768
-4.43766
-4.53237
-4.529
-4.52649
-4.52463
-4.52327
-4.52228
-4.52157
-4.52106
-4.52071
-4.52047
-4.5203
-4.5202
-4.52013
-4.5201
-4.52008
-4.60889
-4.60611
-4.60403
-4.6025
-4.60137
-4.60055
-4.59996
-4.59955
-4.59925
-4.59905
-4.59892
-4.59883
-4.59877
-4.59875
-4.59873
-4.68273
-4.68044
-4.67872
-4.67746
-4.67653
-4.67585
-4.67537
-4.67503
-4.67479
-4.67462
-4.67451
-4.67444
-4.6744
-4.67437
-4.67436
-4.75444
-4.75254
-4.75112
-4.75008
-4.74931
-4.74876
-4.74836
-4.74807
-4.74787
-4.74774
-4.74765
-4.74759
-4.74755
-4.74753
-4.74752
-4.82441
-4.82284
-4.82167
-4.8208
-4.82017
-4.81971
-4.81938
-4.81915
-4.81899
-4.81888
-4.8188
-4.81876
-4.81873
-4.81871
-4.8187
-4.89297
-4.89167
-4.8907
-4.88999
-4.88947
-4.88909
-4.88882
-4.88863
-4.88849
-4.8884
-4.88834
-4.8883
-4.88828
-4.88826
-4.88826
-4.96038
-4.95931
-4.95851
-4.95792
-4.95749
-4.95718
-4.95696
-4.9568
-4.95669
-4.95662
-4.95657
-4.95654
-4.95652
-4.95651
-4.9565
-5.02687
-5.02598
-5.02531
-5.02482
-5.02447
-5.02421
-5.02402
-5.02389
-5.0238
-5.02374
-5.0237
-5.02367
-5.02365
-5.02364
-5.02364
-5.09261
-5.09187
-5.09131
-5.0909
-5.0906
-5.09037
-5.09022
-5.0901
-5.09003
-5.08997
-5.08994
-5.08992
-5.0899
-5.08989
-5.08989
-5.15777
-5.15715
-5.15668
-5.15631
-5.15604
-5.15584
-5.15569
-5.15558
-5.15551
-5.15546
-5.15542
-5.1554
-5.15539
-5.15538
-5.15537
-5.22253
-5.222
-5.22157
-5.22123
-5.22095
-5.22074
-5.22057
-5.22045
-5.22037
-5.2203
-5.22026
-5.22024
-5.22022
-5.22021
-5.22021
-5.28705
-5.28661
-5.28621
-5.28584
-5.2855
-5.2852
-5.28495
-5.28475
-5.2846
-5.28449
-5.28442
-5.28437
-5.28434
-5.28432
-5.28432
-5.35154
-5.35123
-5.35089
-5.3505
-5.35005
-5.34951
-5.34893
-5.34845
-5.34808
-5.34781
-5.34763
-5.34751
-5.34744
-5.3474
-5.34738
-5.41613
-5.41611
-5.41608
-5.41607
-5.41604
-5.41538
-5.41269
-5.41099
-5.4099
-5.40919
-5.40872
-5.40843
-5.40825
-5.40816
-5.40812
-5.46518
-5.46516
-5.46514
-5.46513
-5.46512
-5.46511
-5.4651
-5.4651
-5.46511
-5.46447
-5.46405
-5.46379
-5.46363
-5.46355
-5.46351
-5.51421
-5.51418
-5.51417
-5.51417
-5.51416
-5.51416
-5.51416
-5.51416
-5.51416
-5.51417
-5.51415
-5.51415
-5.51415
-5.51415
-5.51414
-5.5633
-5.56327
-5.56325
-5.56324
-5.56323
-5.56322
-5.5632
-5.5632
-5.56319
-5.56319
-5.56319
-5.56319
-5.56319
-5.56319
-5.56319
-5.61239
-5.61236
-5.61234
-5.61232
-5.6123
-5.61229
-5.61228
-5.61227
-5.61227
-5.61226
-5.61226
-5.61226
-5.61226
-5.61226
-5.61226
-5.66146
-5.66144
-5.66142
-5.6614
-5.66138
-5.66137
-5.66136
-5.66135
-5.66135
-5.66134
-5.66134
-5.66134
-5.66134
-5.66134
-5.66134
-5.71053
-5.71051
-5.71049
-5.71048
-5.71046
-5.71045
-5.71044
-5.71043
-5.71043
-5.71042
-5.71042
-5.71042
-5.71042
-5.71042
-5.71042
-5.75959
-5.75957
-5.75956
-5.75955
-5.75954
-5.75953
-5.75952
-5.75952
-5.75951
-5.75951
-5.7595
-5.7595
-5.7595
-5.7595
-5.7595
-5.80864
-5.80863
-5.80862
-5.80861
-5.8086
-5.80859
-5.80859
-5.80858
-5.80858
-5.80858
-5.80858
-5.80858
-5.80857
-5.80857
-5.80858
-5.8577
-5.85768
-5.85767
-5.85766
-5.85765
-5.85765
-5.85765
-5.85764
-5.85764
-5.85764
-5.85764
-5.85764
-5.85764
-5.85764
-5.85764
-5.90675
-5.90674
-5.90673
-5.90672
-5.90671
-5.90671
-5.9067
-5.9067
-5.9067
-5.9067
-5.9067
-5.9067
-5.9067
-5.9067
-5.9067
-5.95581
-5.9558
-5.95579
-5.95579
-5.95578
-5.95577
-5.95576
-5.95576
-5.95576
-5.95576
-5.95575
-5.95575
-5.95575
-5.95575
-5.95575
-6.00486
-6.00486
-6.00485
-6.00485
-6.00484
-6.00483
-6.00482
-6.00482
-6.00481
-6.00481
-6.00481
-6.00481
-6.00481
-6.00481
-6.00481
-6.05391
-6.0539
-6.0539
-6.05389
-6.05389
-6.05388
-6.05387
-6.05387
-6.05386
-6.05386
-6.05386
-6.05386
-6.05386
-6.05386
-6.05386
-6.10296
-6.10295
-6.10295
-6.10294
-6.10293
-6.10292
-6.10292
-6.10292
-6.10291
-6.10291
-6.10292
-6.10292
-6.10292
-6.10292
-6.10292
-6.152
-6.15199
-6.15198
-6.15197
-6.15196
-6.15195
-6.15195
-6.15195
-6.15195
-6.15195
-6.15195
-6.15195
-6.15195
-6.15195
-6.15195
-6.20103
-6.20102
-6.201
-6.20099
-6.20098
-6.20098
-6.20098
-6.20099
-6.20099
-6.201
-6.20101
-6.20102
-6.20103
-6.20104
-6.20104
-3.40417
-3.41341
-3.4373
-3.46195
-3.48271
-3.4988
-3.51075
-3.51936
-3.52543
-3.5296
-3.53239
-3.53417
-3.53523
-3.53579
-3.53602
-3.549
-3.54897
-3.56006
-3.5737
-3.58616
-3.5963
-3.60406
-3.60978
-3.61385
-3.61668
-3.61858
-3.61979
-3.62052
-3.62091
-3.62107
-3.70799
-3.702
-3.7036
-3.70797
-3.71283
-3.71718
-3.72069
-3.72337
-3.72532
-3.72669
-3.72761
-3.72821
-3.72857
-3.72876
-3.72884
-3.85269
-3.84451
-3.84131
-3.84063
-3.84105
-3.84184
-3.84266
-3.84335
-3.84389
-3.84428
-3.84455
-3.84473
-3.84484
-3.84489
-3.84492
-3.97981
-3.97144
-3.96654
-3.96373
-3.96213
-3.96121
-3.96068
-3.96036
-3.96016
-3.96004
-3.95996
-3.9599
-3.95987
-3.95985
-3.95984
-4.09245
-4.08479
-4.07967
-4.07626
-4.07398
-4.07243
-4.07137
-4.07065
-4.07016
-4.06983
-4.0696
-4.06946
-4.06937
-4.06932
-4.0693
-4.19416
-4.1875
-4.18279
-4.17947
-4.17713
-4.17548
-4.17432
-4.17351
-4.17294
-4.17255
-4.17229
-4.17212
-4.17202
-4.17196
-4.17194
-4.28769
-4.28204
-4.27794
-4.27497
-4.27284
-4.27131
-4.27022
-4.26945
-4.26892
-4.26855
-4.2683
-4.26814
-4.26804
-4.26799
-4.26796
-4.375
-4.37027
-4.36679
-4.36425
-4.3624
-4.36107
-4.36011
-4.35943
-4.35895
-4.35863
-4.35841
-4.35827
-4.35818
-4.35813
-4.35811
-4.45749
-4.45356
-4.45065
-4.44851
-4.44694
-4.44581
-4.445
-4.44442
-4.44402
-4.44374
-4.44355
-4.44343
-4.44336
-4.44332
-4.4433
-4.53619
-4.53293
-4.5305
-4.52872
-4.52741
-4.52646
-4.52578
-4.52529
-4.52495
-4.52472
-4.52456
-4.52446
-4.5244
-4.52436
-4.52435
-4.61185
-4.60915
-4.60714
-4.60565
-4.60456
-4.60378
-4.60321
-4.60281
-4.60252
-4.60233
-4.6022
-4.60212
-4.60207
-4.60204
-4.60202
-4.68507
-4.68283
-4.68116
-4.67992
-4.67902
-4.67837
-4.6779
-4.67756
-4.67733
-4.67717
-4.67706
-4.67699
-4.67695
-4.67692
-4.67691
-4.7563
-4.75444
-4.75305
-4.75203
-4.75128
-4.75074
-4.75035
-4.75007
-4.74988
-4.74975
-4.74966
-4.7496
-4.74957
-4.74955
-4.74954
-4.8259
-4.82435
-4.8232
-4.82235
-4.82173
-4.82129
-4.82096
-4.82073
-4.82057
-4.82046
-4.82039
-4.82034
-4.82031
-4.8203
-4.82029
-4.89417
-4.89288
-4.89193
-4.89123
-4.89071
-4.89034
-4.89008
-4.88989
-4.88976
-4.88967
-4.88961
-4.88957
-4.88955
-4.88954
-4.88953
-4.96134
-4.96028
-4.95949
-4.9589
-4.95848
-4.95817
-4.95795
-4.9578
-4.95769
-4.95762
-4.95757
-4.95753
-4.95751
-4.9575
-4.9575
-5.02763
-5.02674
-5.02609
-5.0256
-5.02525
-5.025
-5.02481
-5.02469
-5.0246
-5.02453
-5.02449
-5.02447
-5.02445
-5.02444
-5.02444
-5.0932
-5.09247
-5.09191
-5.0915
-5.0912
-5.09098
-5.09083
-5.09071
-5.09063
-5.09058
-5.09054
-5.09052
-5.09051
-5.0905
-5.0905
-5.15822
-5.1576
-5.15713
-5.15677
-5.1565
-5.15629
-5.15615
-5.15604
-5.15597
-5.15592
-5.15589
-5.15586
-5.15585
-5.15584
-5.15584
-5.22285
-5.22232
-5.22189
-5.22154
-5.22127
-5.22105
-5.22088
-5.22076
-5.22067
-5.22061
-5.22057
-5.22054
-5.22052
-5.22052
-5.22051
-5.28726
-5.28681
-5.2864
-5.28602
-5.28568
-5.28538
-5.28512
-5.28493
-5.28478
-5.28467
-5.2846
-5.28455
-5.28452
-5.2845
-5.2845
-5.35163
-5.35131
-5.35096
-5.35057
-5.35009
-5.34954
-5.34895
-5.34846
-5.34809
-5.34783
-5.34765
-5.34753
-5.34746
-5.34742
-5.34741
-5.41612
-5.4161
-5.41608
-5.41605
-5.41601
-5.41513
-5.41247
-5.41082
-5.40977
-5.40908
-5.40863
-5.40834
-5.40817
-5.40808
-5.40805
-5.46518
-5.46515
-5.46513
-5.46512
-5.46511
-5.4651
-5.46509
-5.46508
-5.4651
-5.46445
-5.46402
-5.46376
-5.4636
-5.46352
-5.46348
-5.5142
-5.51418
-5.51416
-5.51416
-5.51416
-5.51416
-5.51416
-5.51416
-5.51416
-5.51412
-5.51412
-5.51412
-5.51413
-5.51412
-5.51411
-5.56329
-5.56326
-5.56324
-5.56323
-5.56322
-5.5632
-5.56319
-5.56318
-5.56317
-5.56317
-5.56317
-5.56317
-5.56316
-5.56316
-5.56316
-5.61238
-5.61235
-5.61233
-5.6123
-5.61228
-5.61227
-5.61226
-5.61225
-5.61224
-5.61224
-5.61223
-5.61223
-5.61223
-5.61223
-5.61223
-5.66145
-5.66143
-5.6614
-5.66138
-5.66136
-5.66135
-5.66134
-5.66133
-5.66132
-5.66132
-5.66131
-5.66131
-5.66131
-5.66131
-5.66131
-5.71052
-5.7105
-5.71048
-5.71046
-5.71045
-5.71043
-5.71042
-5.71042
-5.71041
-5.71041
-5.7104
-5.7104
-5.7104
-5.7104
-5.7104
-5.75958
-5.75956
-5.75955
-5.75954
-5.75953
-5.75952
-5.75951
-5.7595
-5.75949
-5.75949
-5.75949
-5.75948
-5.75948
-5.75948
-5.75948
-5.80863
-5.80862
-5.80861
-5.8086
-5.80859
-5.80858
-5.80858
-5.80857
-5.80857
-5.80857
-5.80857
-5.80856
-5.80856
-5.80856
-5.80856
-5.85768
-5.85767
-5.85765
-5.85765
-5.85764
-5.85764
-5.85763
-5.85763
-5.85763
-5.85763
-5.85763
-5.85763
-5.85763
-5.85763
-5.85763
-5.90674
-5.90672
-5.90671
-5.9067
-5.90669
-5.90669
-5.90668
-5.90668
-5.90668
-5.90668
-5.90668
-5.90668
-5.90668
-5.90668
-5.90668
-5.95579
-5.95578
-5.95577
-5.95576
-5.95575
-5.95575
-5.95574
-5.95574
-5.95574
-5.95574
-5.95574
-5.95574
-5.95574
-5.95574
-5.95574
-6.00485
-6.00484
-6.00483
-6.00482
-6.00482
-6.00481
-6.00481
-6.0048
-6.0048
-6.0048
-6.0048
-6.0048
-6.0048
-6.0048
-6.0048
-6.0539
-6.0539
-6.05389
-6.05388
-6.05387
-6.05386
-6.05386
-6.05385
-6.05385
-6.05385
-6.05385
-6.05385
-6.05385
-6.05385
-6.05385
-6.10296
-6.10295
-6.10294
-6.10294
-6.10293
-6.10292
-6.10291
-6.10291
-6.10291
-6.10291
-6.10291
-6.10291
-6.10291
-6.10291
-6.10291
-6.15201
-6.152
-6.15198
-6.15197
-6.15196
-6.15195
-6.15195
-6.15195
-6.15194
-6.15194
-6.15194
-6.15195
-6.15195
-6.15195
-6.15195
-6.20104
-6.20102
-6.20101
-6.20099
-6.20098
-6.20098
-6.20097
-6.20098
-6.20099
-6.201
-6.20101
-6.20101
-6.20102
-6.20103
-6.20104
-3.57586
-3.57405
-3.58033
-3.58882
-3.59685
-3.60351
-3.60868
-3.61252
-3.61528
-3.6172
-3.6185
-3.61933
-3.61983
-3.6201
-3.62021
-3.67256
-3.66792
-3.67009
-3.67468
-3.67956
-3.68383
-3.68725
-3.68984
-3.69173
-3.69306
-3.69396
-3.69453
-3.69489
-3.69508
-3.69515
-3.78784
-3.78098
-3.77926
-3.77999
-3.7815
-3.78313
-3.78456
-3.78571
-3.78656
-3.78718
-3.78761
-3.78789
-3.78806
-3.78815
-3.78819
-3.90359
-3.89585
-3.89195
-3.89017
-3.88947
-3.88928
-3.88931
-3.88942
-3.88953
-3.88963
-3.8897
-3.88975
-3.88978
-3.8898
-3.8898
-4.01305
-4.00543
-4.00071
-3.99781
-3.99601
-3.99488
-3.99416
-3.99369
-3.99338
-3.99318
-3.99304
-3.99296
-3.9929
-3.99287
-3.99286
-4.11496
-4.10799
-4.10327
-4.10008
-4.09791
-4.09643
-4.0954
-4.0947
-4.09421
-4.09388
-4.09366
-4.09352
-4.09343
-4.09338
-4.09336
-4.20996
-4.20384
-4.19952
-4.19647
-4.19432
-4.1928
-4.19173
-4.19098
-4.19045
-4.1901
-4.18986
-4.1897
-4.1896
-4.18955
-4.18953
-4.29912
-4.29388
-4.29009
-4.28737
-4.28541
-4.28401
-4.28301
-4.2823
-4.28181
-4.28147
-4.28124
-4.28109
-4.281
-4.28095
-4.28093
-4.38349
-4.37906
-4.37582
-4.37346
-4.37175
-4.37052
-4.36964
-4.36901
-4.36857
-4.36827
-4.36807
-4.36794
-4.36786
-4.36781
-4.3678
-4.46393
-4.46021
-4.45748
-4.45547
-4.45402
-4.45296
-4.4522
-4.45167
-4.45129
-4.45103
-4.45085
-4.45074
-4.45067
-4.45063
-4.45062
-4.54116
-4.53805
-4.53575
-4.53407
-4.53284
-4.53195
-4.53131
-4.53085
-4.53053
-4.53031
-4.53016
-4.53007
-4.53001
-4.52998
-4.52996
-4.61574
-4.61315
-4.61123
-4.60981
-4.60878
-4.60803
-4.6075
-4.60712
-4.60685
-4.60666
-4.60654
-4.60646
-4.60641
-4.60638
-4.60637
-4.68815
-4.68598
-4.68438
-4.6832
-4.68234
-4.68171
-4.68126
-4.68095
-4.68072
-4.68057
-4.68047
-4.6804
-4.68036
-4.68034
-4.68033
-4.75875
-4.75694
-4.7556
-4.75462
-4.7539
-4.75338
-4.75301
-4.75274
-4.75256
-4.75243
-4.75234
-4.75229
-4.75225
-4.75223
-4.75223
-4.82786
-4.82635
-4.82524
-4.82442
-4.82382
-4.82339
-4.82308
-4.82286
-4.8227
-4.8226
-4.82253
-4.82248
-4.82245
-4.82244
-4.82243
-4.89574
-4.89448
-4.89356
-4.89287
-4.89238
-4.89202
-4.89176
-4.89158
-4.89145
-4.89136
-4.8913
-4.89127
-4.89124
-4.89123
-4.89122
-4.9626
-4.96156
-4.96078
-4.96022
-4.95981
-4.95951
-4.95929
-4.95914
-4.95904
-4.95897
-4.95892
-4.95889
-4.95887
-4.95886
-4.95885
-5.02863
-5.02776
-5.02711
-5.02664
-5.02629
-5.02604
-5.02587
-5.02574
-5.02565
-5.02559
-5.02555
-5.02552
-5.02551
-5.0255
-5.02549
-5.09398
-5.09325
-5.09271
-5.09231
-5.09201
-5.0918
-5.09164
-5.09153
-5.09146
-5.0914
-5.09137
-5.09134
-5.09133
-5.09132
-5.09132
-5.15881
-5.1582
-5.15773
-5.15737
-5.1571
-5.1569
-5.15675
-5.15665
-5.15657
-5.15652
-5.15649
-5.15647
-5.15645
-5.15645
-5.15644
-5.22327
-5.22274
-5.22231
-5.22197
-5.22169
-5.22147
-5.22131
-5.22118
-5.2211
-5.22103
-5.22099
-5.22097
-5.22095
-5.22094
-5.22094
-5.28752
-5.28707
-5.28665
-5.28627
-5.28592
-5.28561
-5.28536
-5.28516
-5.28501
-5.2849
-5.28483
-5.28478
-5.28475
-5.28473
-5.28473
-5.35175
-5.35143
-5.35107
-5.35065
-5.35015
-5.34955
-5.34896
-5.34849
-5.34813
-5.34787
-5.3477
-5.34758
-5.34751
-5.34748
-5.34746
-5.41612
-5.41609
-5.41607
-5.41605
-5.41597
-5.41446
-5.41203
-5.41052
-5.40954
-5.4089
-5.40848
-5.40821
-5.40805
-5.40796
-5.40793
-5.46517
-5.46514
-5.46512
-5.46511
-5.4651
-5.46509
-5.46507
-5.46507
-5.46508
-5.46441
-5.46399
-5.46372
-5.46356
-5.46348
-5.46344
-5.5142
-5.51417
-5.51416
-5.51415
-5.51415
-5.51415
-5.51415
-5.51415
-5.51415
-5.51408
-5.5141
-5.5141
-5.51411
-5.5141
-5.51409
-5.56328
-5.56325
-5.56323
-5.56322
-5.5632
-5.56319
-5.56317
-5.56316
-5.56315
-5.56315
-5.56314
-5.56314
-5.56314
-5.56314
-5.56314
-5.61237
-5.61234
-5.61231
-5.61228
-5.61226
-5.61225
-5.61223
-5.61222
-5.61222
-5.61221
-5.61221
-5.61221
-5.61221
-5.61221
-5.61221
-5.66144
-5.66141
-5.66139
-5.66136
-5.66134
-5.66133
-5.66131
-5.6613
-5.66129
-5.66129
-5.66128
-5.66128
-5.66128
-5.66128
-5.66128
-5.71051
-5.71049
-5.71047
-5.71045
-5.71043
-5.71041
-5.7104
-5.7104
-5.71039
-5.71038
-5.71038
-5.71038
-5.71038
-5.71038
-5.71038
-5.75957
-5.75955
-5.75954
-5.75952
-5.75951
-5.7595
-5.75949
-5.75949
-5.75948
-5.75948
-5.75947
-5.75947
-5.75947
-5.75947
-5.75947
-5.80863
-5.80861
-5.8086
-5.80859
-5.80858
-5.80857
-5.80857
-5.80856
-5.80856
-5.80856
-5.80856
-5.80855
-5.80855
-5.80855
-5.80855
-5.85768
-5.85766
-5.85765
-5.85764
-5.85764
-5.85763
-5.85763
-5.85762
-5.85762
-5.85762
-5.85762
-5.85762
-5.85762
-5.85762
-5.85762
-5.90673
-5.90672
-5.9067
-5.90669
-5.90669
-5.90668
-5.90668
-5.90668
-5.90668
-5.90668
-5.90668
-5.90668
-5.90668
-5.90668
-5.90668
-5.95579
-5.95577
-5.95576
-5.95575
-5.95574
-5.95574
-5.95573
-5.95573
-5.95573
-5.95573
-5.95573
-5.95573
-5.95573
-5.95573
-5.95573
-6.00484
-6.00483
-6.00481
-6.0048
-6.0048
-6.00479
-6.00479
-6.00479
-6.00479
-6.00479
-6.00479
-6.00479
-6.00479
-6.00479
-6.00479
-6.0539
-6.05389
-6.05387
-6.05386
-6.05385
-6.05385
-6.05384
-6.05384
-6.05384
-6.05384
-6.05384
-6.05384
-6.05384
-6.05384
-6.05384
-6.10296
-6.10295
-6.10293
-6.10292
-6.10292
-6.10291
-6.1029
-6.1029
-6.1029
-6.1029
-6.1029
-6.1029
-6.1029
-6.1029
-6.1029
-6.15201
-6.152
-6.15198
-6.15197
-6.15196
-6.15195
-6.15194
-6.15194
-6.15194
-6.15194
-6.15194
-6.15194
-6.15194
-6.15194
-6.15194
-6.20104
-6.20102
-6.20101
-6.20099
-6.20098
-6.20097
-6.20097
-6.20097
-6.20098
-6.20099
-6.201
-6.20101
-6.20101
-6.20102
-6.20103
-3.68573
-3.68073
-3.68091
-3.68308
-3.68573
-3.68817
-3.69019
-3.69175
-3.6929
-3.69371
-3.69427
-3.69463
-3.69485
-3.69497
-3.69502
-3.76192
-3.75599
-3.75464
-3.75534
-3.75673
-3.7582
-3.75948
-3.7605
-3.76126
-3.76181
-3.76219
-3.76245
-3.7626
-3.76268
-3.76272
-3.85352
-3.84676
-3.84379
-3.84278
-3.84267
-3.84295
-3.84332
-3.84366
-3.84394
-3.84415
-3.84431
-3.84441
-3.84447
-3.8445
-3.84452
-3.95014
-3.94311
-3.93915
-3.93696
-3.93577
-3.93512
-3.93476
-3.93456
-3.93445
-3.93439
-3.93436
-3.93434
-3.93433
-3.93432
-3.93432
-4.04597
-4.03919
-4.03489
-4.03214
-4.03036
-4.0292
-4.02844
-4.02793
-4.02758
-4.02735
-4.0272
-4.0271
-4.02704
-4.02701
-4.02699
-4.13856
-4.13235
-4.12815
-4.12529
-4.12333
-4.12198
-4.12104
-4.12039
-4.11995
-4.11965
-4.11944
-4.11931
-4.11923
-4.11919
-4.11917
-4.22719
-4.22169
-4.21784
-4.21513
-4.21322
-4.21188
-4.21092
-4.21026
-4.20979
-4.20948
-4.20926
-4.20913
-4.20904
-4.20899
-4.20897
-4.31195
-4.30719
-4.30379
-4.30135
-4.29961
-4.29836
-4.29747
-4.29685
-4.29641
-4.29611
-4.29591
-4.29578
-4.2957
-4.29565
-4.29563
-4.39321
-4.38915
-4.3862
-4.38408
-4.38254
-4.38144
-4.38065
-4.38009
-4.3797
-4.37943
-4.37925
-4.37913
-4.37906
-4.37902
-4.379
-4.47142
-4.46797
-4.46546
-4.46363
-4.46231
-4.46135
-4.46067
-4.46018
-4.45984
-4.4596
-4.45945
-4.45934
-4.45928
-4.45925
-4.45923
-4.547
-4.54409
-4.54196
-4.54041
-4.53928
-4.53846
-4.53788
-4.53746
-4.53717
-4.53697
-4.53684
-4.53675
-4.5367
-4.53667
-4.53665
-4.62035
-4.6179
-4.61611
-4.61479
-4.61384
-4.61315
-4.61265
-4.6123
-4.61205
-4.61188
-4.61177
-4.61169
-4.61165
-4.61162
-4.61161
-4.69181
-4.68975
-4.68825
-4.68714
-4.68634
-4.68576
-4.68534
-4.68504
-4.68483
-4.68469
-4.68459
-4.68453
-4.68449
-4.68447
-4.68446
-4.76168
-4.75996
-4.75869
-4.75776
-4.75709
-4.7566
-4.75625
-4.756
-4.75582
-4.7557
-4.75562
-4.75557
-4.75554
-4.75552
-4.75551
-4.83022
-4.82877
-4.82771
-4.82693
-4.82637
-4.82596
-4.82567
-4.82546
-4.82531
-4.82521
-4.82514
-4.8251
-4.82507
-4.82506
-4.82505
-4.89763
-4.89642
-4.89554
-4.89489
-4.89441
-4.89407
-4.89383
-4.89365
-4.89353
-4.89345
-4.89339
-4.89336
-4.89333
-4.89332
-4.89332
-4.96412
-4.96311
-4.96237
-4.96182
-4.96143
-4.96114
-4.96094
-4.96079
-4.96069
-4.96062
-4.96058
-4.96055
-4.96053
-4.96052
-4.96051
-5.02983
-5.02899
-5.02836
-5.02791
-5.02758
-5.02734
-5.02716
-5.02704
-5.02696
-5.0269
-5.02686
-5.02683
-5.02682
-5.02681
-5.0268
-5.09492
-5.09421
-5.09368
-5.09329
-5.09301
-5.0928
-5.09265
-5.09254
-5.09247
-5.09241
-5.09238
-5.09236
-5.09234
-5.09234
-5.09233
-5.15952
-5.15892
-5.15846
-5.15811
-5.15785
-5.15765
-5.15751
-5.1574
-5.15733
-5.15728
-5.15725
-5.15722