/*--------------------------------*- C++ -*----------------------------------*\
  =========                 |
  \\      /  F ield         | OpenFOAM: The Open Source CFD Toolbox
   \\    /   O peration     | Website:  https://openfoam.org
    \\  /    A nd           | Version:  6
     \\/     M anipulation  |
\*---------------------------------------------------------------------------*/
FoamFile
{
    version     2.0;
    format      ascii;
    class       volScalarField;
    location    "0";
    object      p_rgh;
}
// * * * * * * * * * * * * * * * * * * * * * * * * * * * * * * * * * * * * * //

dimensions      [0 2 -2 0 0 0 0];

internalField   nonuniform List<scalar> 
120400
(
0.0245251
-1.75947
-2.48563
-2.83433
-3.02298
-3.13373
-3.20233
-3.24624
-3.2748
-3.29344
-3.30546
-3.31301
-3.31749
-3.31987
-3.32082
-2.70361
-2.87284
-3.03579
-3.15204
-3.23098
-3.28432
-3.32049
-3.34504
-3.36165
-3.37277
-3.38007
-3.3847
-3.38746
-3.38894
-3.38953
-3.32428
-3.33684
-3.36862
-3.4
-3.4257
-3.44526
-3.4596
-3.46987
-3.47707
-3.482
-3.48529
-3.48739
-3.48866
-3.48934
-3.48961
-3.56418
-3.55718
-3.5598
-3.56573
-3.57201
-3.57748
-3.58184
-3.58512
-3.5875
-3.58917
-3.59029
-3.59102
-3.59146
-3.59169
-3.59179
-3.69633
-3.68696
-3.68273
-3.68123
-3.68101
-3.68132
-3.68176
-3.68219
-3.68254
-3.68281
-3.68299
-3.68311
-3.68319
-3.68323
-3.68324
-3.78464
-3.77594
-3.77045
-3.76702
-3.76487
-3.7635
-3.76261
-3.76204
-3.76165
-3.7614
-3.76124
-3.76113
-3.76107
-3.76104
-3.76102
-3.85032
-3.84287
-3.83768
-3.83408
-3.83157
-3.82983
-3.82862
-3.82777
-3.82719
-3.8268
-3.82653
-3.82636
-3.82626
-3.82621
-3.82618
-3.9024
-3.89622
-3.89172
-3.88848
-3.88615
-3.88448
-3.8833
-3.88247
-3.88189
-3.88149
-3.88122
-3.88105
-3.88095
-3.8809
-3.88087
-3.94545
-3.94037
-3.93661
-3.93385
-3.93184
-3.93039
-3.92935
-3.92861
-3.9281
-3.92775
-3.92751
-3.92736
-3.92727
-3.92722
-3.9272
-3.98209
-3.97793
-3.97482
-3.97252
-3.97084
-3.96962
-3.96875
-3.96813
-3.96769
-3.96739
-3.96719
-3.96707
-3.96699
-3.96695
-3.96693
-4.01396
-4.01055
-4.008
-4.0061
-4.00471
-4.0037
-4.00298
-4.00246
-4.0021
-4.00185
-4.00169
-4.00158
-4.00152
-4.00148
-4.00147
-4.04217
-4.03938
-4.03728
-4.03572
-4.03458
-4.03374
-4.03315
-4.03272
-4.03243
-4.03222
-4.03209
-4.032
-4.03195
-4.03192
-4.03191
-4.06752
-4.06522
-4.0635
-4.06222
-4.06128
-4.06059
-4.0601
-4.05975
-4.05951
-4.05934
-4.05923
-4.05916
-4.05912
-4.0591
-4.05909
-4.09059
-4.0887
-4.08728
-4.08622
-4.08545
-4.08489
-4.08449
-4.0842
-4.084
-4.08386
-4.08377
-4.08371
-4.08368
-4.08366
-4.08365
-4.11184
-4.11027
-4.1091
-4.10823
-4.10759
-4.10713
-4.1068
-4.10657
-4.1064
-4.10629
-4.10622
-4.10617
-4.10614
-4.10612
-4.10612
-4.1316
-4.13031
-4.12934
-4.12862
-4.1281
-4.12772
-4.12745
-4.12726
-4.12712
-4.12703
-4.12697
-4.12693
-4.12691
-4.12689
-4.12689
-4.15017
-4.1491
-4.1483
-4.14771
-4.14728
-4.14697
-4.14675
-4.14659
-4.14648
-4.1464
-4.14635
-4.14632
-4.1463
-4.14629
-4.14629
-4.16777
-4.16689
-4.16623
-4.16574
-4.16538
-4.16512
-4.16494
-4.1648
-4.16471
-4.16465
-4.16461
-4.16458
-4.16457
-4.16456
-4.16455
-4.18461
-4.18388
-4.18333
-4.18291
-4.18261
-4.18239
-4.18223
-4.18211
-4.18203
-4.18198
-4.18194
-4.18192
-4.18191
-4.1819
-4.1819
-4.20086
-4.20025
-4.19977
-4.19941
-4.19914
-4.19893
-4.19879
-4.19868
-4.19861
-4.19855
-4.19852
-4.1985
-4.19849
-4.19848
-4.19847
-4.21669
-4.21617
-4.21575
-4.2154
-4.21513
-4.21491
-4.21475
-4.21463
-4.21454
-4.21448
-4.21444
-4.21441
-4.21439
-4.21439
-4.21438
-4.23228
-4.23185
-4.23145
-4.23109
-4.23076
-4.23046
-4.23022
-4.23002
-4.22987
-4.22976
-4.22969
-4.22964
-4.22961
-4.22959
-4.22958
-4.24783
-4.24752
-4.2472
-4.24683
-4.2464
-4.24588
-4.24531
-4.24482
-4.24444
-4.24417
-4.24399
-4.24387
-4.24379
-4.24375
-4.24374
-4.26348
-4.26343
-4.26343
-4.26342
-4.2634
-4.263
-4.26028
-4.25852
-4.25739
-4.25665
-4.25616
-4.25586
-4.25568
-4.25558
-4.25554
-4.26348
-4.26343
-4.26343
-4.26343
-4.26342
-4.26341
-4.2634
-4.2634
-4.2634
-4.26277
-4.26236
-4.2621
-4.26194
-4.26186
-4.26183
-4.26346
-4.26343
-4.26342
-4.26341
-4.2634
-4.2634
-4.2634
-4.2634
-4.2634
-4.26347
-4.26342
-4.26341
-4.26341
-4.26341
-4.2634
-4.2635
-4.26347
-4.26346
-4.26344
-4.26343
-4.26341
-4.26341
-4.2634
-4.2634
-4.26339
-4.26339
-4.26339
-4.26339
-4.26339
-4.26339
-4.26354
-4.26351
-4.26349
-4.26347
-4.26346
-4.26345
-4.26344
-4.26343
-4.26343
-4.26342
-4.26342
-4.26342
-4.26342
-4.26342
-4.26342
-4.26356
-4.26354
-4.26352
-4.2635
-4.26349
-4.26348
-4.26347
-4.26346
-4.26346
-4.26346
-4.26345
-4.26345
-4.26345
-4.26345
-4.26345
-4.26357
-4.26355
-4.26354
-4.26353
-4.26352
-4.26351
-4.2635
-4.26349
-4.26349
-4.26349
-4.26349
-4.26349
-4.26348
-4.26348
-4.26349
-4.26358
-4.26357
-4.26355
-4.26354
-4.26354
-4.26353
-4.26352
-4.26352
-4.26351
-4.26351
-4.26351
-4.26351
-4.26351
-4.26351
-4.26351
-4.26359
-4.26358
-4.26357
-4.26356
-4.26355
-4.26355
-4.26354
-4.26353
-4.26353
-4.26353
-4.26353
-4.26352
-4.26352
-4.26352
-4.26352
-4.2636
-4.26359
-4.26358
-4.26357
-4.26356
-4.26356
-4.26355
-4.26355
-4.26354
-4.26354
-4.26354
-4.26354
-4.26354
-4.26354
-4.26354
-4.26361
-4.2636
-4.26359
-4.26358
-4.26357
-4.26356
-4.26356
-4.26355
-4.26355
-4.26355
-4.26355
-4.26355
-4.26355
-4.26355
-4.26355
-4.2636
-4.2636
-4.26359
-4.26358
-4.26357
-4.26357
-4.26356
-4.26356
-4.26355
-4.26355
-4.26355
-4.26355
-4.26355
-4.26355
-4.26355
-4.2636
-4.26359
-4.26358
-4.26358
-4.26357
-4.26357
-4.26356
-4.26355
-4.26355
-4.26355
-4.26355
-4.26355
-4.26355
-4.26355
-4.26355
-4.26359
-4.26358
-4.26358
-4.26357
-4.26356
-4.26355
-4.26355
-4.26355
-4.26354
-4.26354
-4.26354
-4.26354
-4.26354
-4.26354
-4.26354
-4.26358
-4.26357
-4.26356
-4.26355
-4.26355
-4.26355
-4.26354
-4.26354
-4.26355
-4.26355
-4.26355
-4.26355
-4.26355
-4.26355
-4.26355
-4.26356
-4.26355
-4.26354
-4.26353
-4.26352
-4.26352
-4.26352
-4.26352
-4.26352
-4.26352
-4.26352
-4.26352
-4.26352
-4.26352
-4.26352
-4.26354
-4.26353
-4.26351
-4.2635
-4.2635
-4.2635
-4.26351
-4.26352
-4.26353
-4.26354
-4.26354
-4.26355
-4.26356
-4.26357
-4.26358
-2.36486
-2.6346
-2.87543
-3.03945
-3.14701
-3.21779
-3.26482
-3.29629
-3.31735
-3.33133
-3.34044
-3.34619
-3.34961
-3.35143
-3.35214
-3.04257
-3.09481
-3.17463
-3.2438
-3.29621
-3.33406
-3.36081
-3.37946
-3.39228
-3.40096
-3.40668
-3.41032
-3.41249
-3.41364
-3.4141
-3.39462
-3.39715
-3.41611
-3.43762
-3.45646
-3.47138
-3.48258
-3.49072
-3.49647
-3.50043
-3.50307
-3.50476
-3.50578
-3.50631
-3.50652
-3.58635
-3.57851
-3.57902
-3.58288
-3.58745
-3.59162
-3.59501
-3.5976
-3.59948
-3.60081
-3.6017
-3.60227
-3.60261
-3.6028
-3.60287
-3.70615
-3.6968
-3.69221
-3.69024
-3.68959
-3.68953
-3.68969
-3.6899
-3.69008
-3.69023
-3.69033
-3.69039
-3.69043
-3.69045
-3.69046
-3.79005
-3.78143
-3.77589
-3.77235
-3.77009
-3.76861
-3.76764
-3.76699
-3.76655
-3.76626
-3.76606
-3.76594
-3.76586
-3.76582
-3.7658
-3.85372
-3.84632
-3.84113
-3.83751
-3.83497
-3.8332
-3.83196
-3.83109
-3.83049
-3.83008
-3.8298
-3.82962
-3.82951
-3.82945
-3.82943
-3.90471
-3.89855
-3.89406
-3.89082
-3.88848
-3.88681
-3.88561
-3.88477
-3.88418
-3.88378
-3.88351
-3.88333
-3.88323
-3.88317
-3.88314
-3.94711
-3.94203
-3.93827
-3.93551
-3.9335
-3.93205
-3.931
-3.93026
-3.92975
-3.92939
-3.92915
-3.929
-3.9289
-3.92885
-3.92883
-3.98332
-3.97915
-3.97605
-3.97375
-3.97207
-3.97085
-3.96997
-3.96934
-3.96891
-3.96861
-3.96841
-3.96828
-3.9682
-3.96815
-3.96814
-4.0149
-4.01148
-4.00892
-4.00703
-4.00564
-4.00463
-4.0039
-4.00338
-4.00302
-4.00277
-4.0026
-4.00249
-4.00243
-4.00239
-4.00238
-4.04291
-4.0401
-4.038
-4.03644
-4.03529
-4.03446
-4.03386
-4.03343
-4.03314
-4.03293
-4.0328
-4.03271
-4.03265
-4.03262
-4.03261
-4.06811
-4.0658
-4.06407
-4.06278
-4.06184
-4.06116
-4.06066
-4.06031
-4.06007
-4.0599
-4.05979
-4.05972
-4.05967
-4.05965
-4.05964
-4.09107
-4.08916
-4.08774
-4.08668
-4.0859
-4.08534
-4.08494
-4.08465
-4.08445
-4.08431
-4.08422
-4.08416
-4.08413
-4.08411
-4.0841
-4.11223
-4.11065
-4.10947
-4.1086
-4.10796
-4.1075
-4.10717
-4.10693
-4.10677
-4.10666
-4.10658
-4.10653
-4.1065
-4.10649
-4.10648
-4.13192
-4.13062
-4.12965
-4.12893
-4.12841
-4.12803
-4.12775
-4.12756
-4.12743
-4.12733
-4.12727
-4.12723
-4.12721
-4.1272
-4.12719
-4.15044
-4.14936
-4.14856
-4.14797
-4.14753
-4.14722
-4.147
-4.14684
-4.14673
-4.14665
-4.1466
-4.14657
-4.14655
-4.14654
-4.14653
-4.16799
-4.1671
-4.16644
-4.16595
-4.16559
-4.16533
-4.16514
-4.16501
-4.16492
-4.16486
-4.16482
-4.16479
-4.16478
-4.16477
-4.16476
-4.18479
-4.18405
-4.18349
-4.18308
-4.18278
-4.18255
-4.1824
-4.18228
-4.1822
-4.18215
-4.18211
-4.18209
-4.18208
-4.18207
-4.18207
-4.201
-4.20038
-4.1999
-4.19954
-4.19927
-4.19907
-4.19892
-4.19881
-4.19874
-4.19869
-4.19865
-4.19863
-4.19862
-4.19861
-4.19861
-4.21679
-4.21627
-4.21584
-4.2155
-4.21522
-4.21501
-4.21484
-4.21472
-4.21463
-4.21457
-4.21453
-4.2145
-4.21449
-4.21448
-4.21447
-4.23234
-4.23191
-4.23151
-4.23114
-4.23081
-4.23051
-4.23027
-4.23007
-4.22992
-4.22981
-4.22974
-4.22969
-4.22966
-4.22964
-4.22964
-4.24785
-4.24755
-4.24722
-4.24684
-4.2464
-4.24588
-4.2453
-4.24481
-4.24444
-4.24417
-4.24399
-4.24387
-4.24379
-4.24375
-4.24374
-4.26345
-4.26343
-4.26341
-4.2634
-4.26338
-4.26293
-4.2602
-4.25845
-4.25733
-4.2566
-4.25612
-4.25582
-4.25564
-4.25554
-4.25551
-4.26345
-4.26343
-4.26341
-4.26341
-4.2634
-4.2634
-4.26339
-4.26339
-4.26339
-4.26276
-4.26234
-4.26208
-4.26193
-4.26184
-4.26181
-4.26344
-4.26342
-4.2634
-4.2634
-4.26339
-4.26339
-4.26339
-4.26339
-4.2634
-4.26343
-4.2634
-4.2634
-4.2634
-4.2634
-4.26339
-4.26349
-4.26346
-4.26344
-4.26343
-4.26341
-4.2634
-4.26339
-4.26339
-4.26339
-4.26338
-4.26338
-4.26338
-4.26338
-4.26338
-4.26338
-4.26353
-4.2635
-4.26347
-4.26345
-4.26344
-4.26343
-4.26342
-4.26341
-4.26341
-4.26341
-4.26341
-4.26341
-4.26341
-4.2634
-4.2634
-4.26355
-4.26353
-4.26351
-4.26349
-4.26347
-4.26346
-4.26345
-4.26344
-4.26344
-4.26344
-4.26343
-4.26343
-4.26343
-4.26343
-4.26343
-4.26356
-4.26355
-4.26353
-4.26351
-4.2635
-4.26349
-4.26348
-4.26348
-4.26347
-4.26347
-4.26346
-4.26346
-4.26346
-4.26346
-4.26346
-4.26357
-4.26356
-4.26355
-4.26353
-4.26353
-4.26352
-4.26351
-4.26351
-4.2635
-4.2635
-4.26349
-4.26349
-4.26349
-4.26349
-4.26349
-4.26358
-4.26357
-4.26356
-4.26355
-4.26354
-4.26353
-4.26353
-4.26352
-4.26352
-4.26352
-4.26352
-4.26351
-4.26351
-4.26351
-4.26351
-4.2636
-4.26358
-4.26357
-4.26356
-4.26355
-4.26354
-4.26354
-4.26353
-4.26353
-4.26353
-4.26353
-4.26353
-4.26353
-4.26353
-4.26353
-4.2636
-4.26359
-4.26358
-4.26357
-4.26356
-4.26355
-4.26355
-4.26355
-4.26354
-4.26354
-4.26354
-4.26354
-4.26354
-4.26354
-4.26354
-4.2636
-4.2636
-4.26359
-4.26358
-4.26357
-4.26356
-4.26355
-4.26355
-4.26355
-4.26354
-4.26354
-4.26354
-4.26354
-4.26354
-4.26354
-4.26359
-4.26359
-4.26359
-4.26358
-4.26357
-4.26356
-4.26356
-4.26355
-4.26355
-4.26355
-4.26355
-4.26355
-4.26355
-4.26355
-4.26355
-4.26359
-4.26358
-4.26358
-4.26357
-4.26356
-4.26356
-4.26355
-4.26355
-4.26354
-4.26354
-4.26354
-4.26354
-4.26354
-4.26354
-4.26354
-4.26359
-4.26358
-4.26357
-4.26356
-4.26355
-4.26355
-4.26354
-4.26354
-4.26354
-4.26354
-4.26354
-4.26354
-4.26355
-4.26355
-4.26355
-4.26357
-4.26356
-4.26355
-4.26354
-4.26353
-4.26353
-4.26352
-4.26352
-4.26352
-4.26352
-4.26352
-4.26352
-4.26352
-4.26352
-4.26352
-4.26355
-4.26354
-4.26352
-4.26351
-4.2635
-4.2635
-4.26351
-4.26351
-4.26352
-4.26353
-4.26354
-4.26355
-4.26356
-4.26357
-4.26357
-3.07031
-3.12253
-3.19858
-3.26398
-3.31342
-3.34912
-3.37436
-3.39196
-3.40408
-3.41227
-3.41768
-3.42112
-3.42317
-3.42426
-3.42469
-3.29893
-3.31187
-3.34422
-3.37712
-3.40452
-3.42558
-3.4411
-3.45223
-3.46003
-3.46538
-3.46894
-3.47121
-3.47257
-3.47329
-3.47357
-3.49213
-3.4888
-3.4968
-3.508
-3.51868
-3.52757
-3.53446
-3.53956
-3.54322
-3.54576
-3.54747
-3.54856
-3.54922
-3.54956
-3.5497
-3.62975
-3.62149
-3.61978
-3.62105
-3.62332
-3.62564
-3.62764
-3.6292
-3.63037
-3.63119
-3.63175
-3.63212
-3.63234
-3.63246
-3.6325
-3.7288
-3.71982
-3.71496
-3.71249
-3.7113
-3.71077
-3.71055
-3.71047
-3.71045
-3.71045
-3.71045
-3.71045
-3.71045
-3.71045
-3.71045
-3.80346
-3.79521
-3.78981
-3.78628
-3.78396
-3.78242
-3.78139
-3.78069
-3.78021
-3.77989
-3.77967
-3.77954
-3.77945
-3.7794
-3.77938
-3.8624
-3.85528
-3.85027
-3.84675
-3.84428
-3.84254
-3.84132
-3.84047
-3.83988
-3.83947
-3.8392
-3.83902
-3.83892
-3.83886
-3.83883
-3.9107
-3.90472
-3.90038
-3.89723
-3.89497
-3.89335
-3.89219
-3.89137
-3.8908
-3.89041
-3.89014
-3.88997
-3.88987
-3.88981
-3.88978
-3.95142
-3.94647
-3.94281
-3.94013
-3.93817
-3.93676
-3.93575
-3.93503
-3.93453
-3.93419
-3.93395
-3.9338
-3.93371
-3.93366
-3.93364
-3.98653
-3.98244
-3.9794
-3.97716
-3.97552
-3.97433
-3.97347
-3.97287
-3.97244
-3.97215
-3.97195
-3.97182
-3.97175
-3.9717
-3.97168
-4.01735
-4.01398
-4.01146
-4.00961
-4.00824
-4.00726
-4.00654
-4.00604
-4.00568
-4.00544
-4.00528
-4.00517
-4.00511
-4.00507
-4.00506
-4.04481
-4.04203
-4.03996
-4.03842
-4.03729
-4.03648
-4.03589
-4.03547
-4.03518
-4.03498
-4.03484
-4.03475
-4.0347
-4.03467
-4.03466
-4.06961
-4.06731
-4.0656
-4.06433
-4.0634
-4.06273
-4.06225
-4.0619
-4.06166
-4.0615
-4.06139
-4.06132
-4.06127
-4.06125
-4.06124
-4.09226
-4.09037
-4.08895
-4.0879
-4.08714
-4.08658
-4.08618
-4.0859
-4.0857
-4.08556
-4.08547
-4.08541
-4.08538
-4.08536
-4.08535
-4.11319
-4.11161
-4.11044
-4.10958
-4.10895
-4.10849
-4.10816
-4.10793
-4.10776
-4.10765
-4.10758
-4.10753
-4.1075
-4.10749
-4.10748
-4.1327
-4.1314
-4.13043
-4.12971
-4.12919
-4.12881
-4.12854
-4.12835
-4.12822
-4.12813
-4.12806
-4.12802
-4.128
-4.12799
-4.12798
-4.15106
-4.14998
-4.14918
-4.14859
-4.14816
-4.14785
-4.14763
-4.14747
-4.14737
-4.14729
-4.14724
-4.14721
-4.14719
-4.14718
-4.14718
-4.16849
-4.1676
-4.16694
-4.16645
-4.16609
-4.16583
-4.16565
-4.16552
-4.16542
-4.16536
-4.16532
-4.16529
-4.16528
-4.16527
-4.16526
-4.18518
-4.18444
-4.18389
-4.18347
-4.18317
-4.18295
-4.18279
-4.18268
-4.1826
-4.18255
-4.18251
-4.18249
-4.18248
-4.18247
-4.18247
-4.2013
-4.20068
-4.2002
-4.19984
-4.19957
-4.19936
-4.19921
-4.19911
-4.19903
-4.19898
-4.19895
-4.19892
-4.19891
-4.1989
-4.1989
-4.21701
-4.21648
-4.21605
-4.2157
-4.21543
-4.21521
-4.21505
-4.21493
-4.21484
-4.21478
-4.21474
-4.21471
-4.2147
-4.21469
-4.21468
-4.23248
-4.23203
-4.23163
-4.23126
-4.23092
-4.23063
-4.23037
-4.23017
-4.23002
-4.22992
-4.22984
-4.22979
-4.22976
-4.22975
-4.22974
-4.24791
-4.2476
-4.24726
-4.24688
-4.24643
-4.24589
-4.24531
-4.24482
-4.24445
-4.24419
-4.24401
-4.24389
-4.24381
-4.24378
-4.24376
-4.26345
-4.26343
-4.26341
-4.26339
-4.26336
-4.26271
-4.26002
-4.25832
-4.25723
-4.25651
-4.25604
-4.25575
-4.25558
-4.25548
-4.25544
-4.26346
-4.26344
-4.26341
-4.2634
-4.2634
-4.26339
-4.26338
-4.26337
-4.26339
-4.26274
-4.26232
-4.26206
-4.26191
-4.26182
-4.26179
-4.26343
-4.26341
-4.26339
-4.26339
-4.26339
-4.26339
-4.26339
-4.26339
-4.26339
-4.26339
-4.26337
-4.26337
-4.26338
-4.26337
-4.26336
-4.26348
-4.26345
-4.26343
-4.26342
-4.2634
-4.26339
-4.26338
-4.26337
-4.26337
-4.26336
-4.26336
-4.26336
-4.26336
-4.26336
-4.26336
-4.26352
-4.26349
-4.26346
-4.26344
-4.26343
-4.26341
-4.2634
-4.2634
-4.26339
-4.26339
-4.26338
-4.26338
-4.26338
-4.26338
-4.26338
-4.26354
-4.26351
-4.26349
-4.26347
-4.26346
-4.26344
-4.26343
-4.26343
-4.26342
-4.26342
-4.26341
-4.26341
-4.26341
-4.26341
-4.26341
-4.26355
-4.26353
-4.26352
-4.2635
-4.26349
-4.26348
-4.26347
-4.26346
-4.26345
-4.26345
-4.26345
-4.26345
-4.26344
-4.26344
-4.26344
-4.26356
-4.26355
-4.26354
-4.26352
-4.26351
-4.26351
-4.2635
-4.26349
-4.26349
-4.26348
-4.26348
-4.26348
-4.26348
-4.26348
-4.26348
-4.26357
-4.26355
-4.26354
-4.26353
-4.26353
-4.26352
-4.26351
-4.26351
-4.26351
-4.2635
-4.2635
-4.2635
-4.2635
-4.2635
-4.2635
-4.26357
-4.26356
-4.26354
-4.26354
-4.26353
-4.26353
-4.26352
-4.26352
-4.26352
-4.26352
-4.26352
-4.26352
-4.26352
-4.26351
-4.26352
-4.26358
-4.26357
-4.26356
-4.26354
-4.26354
-4.26353
-4.26353
-4.26353
-4.26353
-4.26353
-4.26353
-4.26352
-4.26352
-4.26352
-4.26352
-4.26359
-4.26358
-4.26357
-4.26356
-4.26355
-4.26354
-4.26354
-4.26353
-4.26353
-4.26353
-4.26353
-4.26353
-4.26353
-4.26353
-4.26353
-4.26358
-4.26358
-4.26358
-4.26357
-4.26356
-4.26356
-4.26355
-4.26354
-4.26354
-4.26354
-4.26354
-4.26354
-4.26354
-4.26354
-4.26354
-4.26358
-4.26357
-4.26357
-4.26357
-4.26356
-4.26355
-4.26355
-4.26354
-4.26354
-4.26353
-4.26353
-4.26353
-4.26353
-4.26353
-4.26353
-4.26359
-4.26358
-4.26357
-4.26356
-4.26356
-4.26355
-4.26354
-4.26354
-4.26354
-4.26354
-4.26354
-4.26354
-4.26354
-4.26354
-4.26354
-4.26358
-4.26357
-4.26356
-4.26354
-4.26353
-4.26353
-4.26352
-4.26352
-4.26352
-4.26352
-4.26352
-4.26352
-4.26352
-4.26352
-4.26352
-4.26356
-4.26354
-4.26353
-4.26352
-4.26351
-4.2635
-4.2635
-4.26351
-4.26352
-4.26353
-4.26354
-4.26355
-4.26355
-4.26356
-4.26357
-3.37965
-3.38888
-3.41278
-3.43742
-3.45818
-3.47428
-3.48622
-3.49484
-3.50091
-3.50508
-3.50786
-3.50964
-3.5107
-3.51127
-3.51149
-3.47543
-3.47539
-3.48649
-3.50013
-3.51259
-3.52273
-3.53049
-3.5362
-3.54028
-3.54311
-3.545
-3.54622
-3.54695
-3.54734
-3.54749
-3.58537
-3.57938
-3.58097
-3.58534
-3.59021
-3.59455
-3.59807
-3.60074
-3.60269
-3.60406
-3.60499
-3.60558
-3.60594
-3.60614
-3.60622
-3.68101
-3.67284
-3.66963
-3.66896
-3.66937
-3.67017
-3.67098
-3.67168
-3.67222
-3.67261
-3.67288
-3.67305
-3.67316
-3.67322
-3.67324
-3.75908
-3.75072
-3.74581
-3.743
-3.7414
-3.74049
-3.73995
-3.73963
-3.73944
-3.73931
-3.73923
-3.73918
-3.73914
-3.73912
-3.73912
-3.82268
-3.81501
-3.8099
-3.80649
-3.8042
-3.80265
-3.8016
-3.80088
-3.80039
-3.80005
-3.79983
-3.79968
-3.79959
-3.79954
-3.79952
-3.87534
-3.86867
-3.86396
-3.86064
-3.85831
-3.85666
-3.85549
-3.85468
-3.85412
-3.85373
-3.85347
-3.8533
-3.8532
-3.85314
-3.85311
-3.91981
-3.91416
-3.91006
-3.9071
-3.90497
-3.90344
-3.90235
-3.90158
-3.90104
-3.90067
-3.90042
-3.90026
-3.90017
-3.90011
-3.90009
-3.95807
-3.95335
-3.94987
-3.94732
-3.94548
-3.94414
-3.94318
-3.94251
-3.94203
-3.9417
-3.94148
-3.94134
-3.94125
-3.94121
-3.94118
-3.99152
-3.98758
-3.98467
-3.98253
-3.98097
-3.97984
-3.97902
-3.97845
-3.97804
-3.97776
-3.97758
-3.97745
-3.97738
-3.97734
-3.97732
-4.02116
-4.0179
-4.01548
-4.01369
-4.01238
-4.01143
-4.01075
-4.01027
-4.00993
-4.00969
-4.00954
-4.00943
-4.00937
-4.00934
-4.00932
-4.04778
-4.04507
-4.04306
-4.04158
-4.04049
-4.0397
-4.03913
-4.03873
-4.03845
-4.03826
-4.03813
-4.03804
-4.03799
-4.03796
-4.03795
-4.07195
-4.0697
-4.06803
-4.0668
-4.0659
-4.06524
-4.06477
-4.06444
-4.0642
-4.06404
-4.06393
-4.06386
-4.06382
-4.0638
-4.06379
-4.09413
-4.09226
-4.09087
-4.08985
-4.08911
-4.08856
-4.08817
-4.0879
-4.08771
-4.08757
-4.08749
-4.08743
-4.08739
-4.08737
-4.08737
-4.11467
-4.11313
-4.11198
-4.11113
-4.11051
-4.11006
-4.10974
-4.10951
-4.10935
-4.10924
-4.10917
-4.10912
-4.10909
-4.10907
-4.10907
-4.13389
-4.13261
-4.13165
-4.13095
-4.13044
-4.13007
-4.1298
-4.12962
-4.12949
-4.1294
-4.12934
-4.1293
-4.12927
-4.12926
-4.12926
-4.15202
-4.15095
-4.15016
-4.14958
-4.14916
-4.14885
-4.14863
-4.14847
-4.14837
-4.14829
-4.14824
-4.14821
-4.14819
-4.14818
-4.14817
-4.16925
-4.16837
-4.16771
-4.16723
-4.16688
-4.16662
-4.16644
-4.16631
-4.16622
-4.16616
-4.16612
-4.16609
-4.16608
-4.16607
-4.16606
-4.18578
-4.18504
-4.18449
-4.18408
-4.18378
-4.18356
-4.1834
-4.18329
-4.18321
-4.18316
-4.18312
-4.1831
-4.18308
-4.18307
-4.18307
-4.20175
-4.20113
-4.20065
-4.20029
-4.20002
-4.19982
-4.19967
-4.19957
-4.19949
-4.19944
-4.19941
-4.19939
-4.19938
-4.19937
-4.19936
-4.21733
-4.2168
-4.21637
-4.21602
-4.21574
-4.21553
-4.21536
-4.21524
-4.21515
-4.21509
-4.21504
-4.21502
-4.215
-4.21499
-4.21499
-4.23268
-4.23223
-4.23182
-4.23145
-4.23111
-4.2308
-4.23055
-4.23035
-4.2302
-4.23009
-4.23002
-4.22997
-4.22994
-4.22993
-4.22992
-4.24801
-4.24769
-4.24734
-4.24694
-4.24647
-4.24591
-4.24532
-4.24484
-4.24447
-4.24421
-4.24403
-4.24391
-4.24384
-4.2438
-4.24378
-4.26345
-4.26342
-4.2634
-4.26338
-4.26334
-4.26245
-4.2598
-4.25815
-4.2571
-4.2564
-4.25595
-4.25567
-4.2555
-4.25541
-4.25537
-4.26345
-4.26343
-4.26341
-4.26339
-4.26339
-4.26338
-4.26336
-4.26336
-4.26338
-4.26272
-4.2623
-4.26203
-4.26188
-4.26179
-4.26176
-4.26343
-4.2634
-4.26339
-4.26338
-4.26338
-4.26338
-4.26338
-4.26338
-4.26338
-4.26335
-4.26335
-4.26335
-4.26335
-4.26335
-4.26334
-4.26347
-4.26344
-4.26342
-4.2634
-4.26339
-4.26338
-4.26336
-4.26335
-4.26334
-4.26334
-4.26334
-4.26334
-4.26334
-4.26334
-4.26334
-4.2635
-4.26348
-4.26345
-4.26343
-4.26341
-4.26339
-4.26338
-4.26337
-4.26336
-4.26336
-4.26336
-4.26336
-4.26335
-4.26335
-4.26335
-4.26353
-4.2635
-4.26348
-4.26346
-4.26344
-4.26343
-4.26341
-4.2634
-4.2634
-4.26339
-4.26339
-4.26339
-4.26339
-4.26338
-4.26338
-4.26355
-4.26352
-4.2635
-4.26349
-4.26347
-4.26346
-4.26345
-4.26344
-4.26344
-4.26343
-4.26343
-4.26343
-4.26343
-4.26343
-4.26343
-4.26355
-4.26354
-4.26352
-4.26351
-4.2635
-4.26349
-4.26348
-4.26348
-4.26347
-4.26346
-4.26346
-4.26346
-4.26346
-4.26346
-4.26346
-4.26356
-4.26354
-4.26353
-4.26352
-4.26351
-4.26351
-4.2635
-4.2635
-4.26349
-4.26349
-4.26349
-4.26349
-4.26349
-4.26349
-4.26349
-4.26356
-4.26354
-4.26353
-4.26352
-4.26352
-4.26351
-4.26351
-4.26351
-4.2635
-4.2635
-4.2635
-4.2635
-4.2635
-4.2635
-4.2635
-4.26356
-4.26355
-4.26353
-4.26352
-4.26352
-4.26351
-4.26351
-4.26351
-4.26351
-4.26351
-4.26351
-4.26351
-4.26351
-4.26351
-4.26351
-4.26357
-4.26356
-4.26354
-4.26353
-4.26353
-4.26352
-4.26352
-4.26351
-4.26351
-4.26351
-4.26351
-4.26351
-4.26351
-4.26351
-4.26351
-4.26357
-4.26357
-4.26356
-4.26355
-4.26354
-4.26354
-4.26353
-4.26353
-4.26352
-4.26352
-4.26352
-4.26352
-4.26352
-4.26352
-4.26352
-4.26358
-4.26357
-4.26356
-4.26355
-4.26354
-4.26354
-4.26353
-4.26353
-4.26352
-4.26352
-4.26352
-4.26352
-4.26352
-4.26352
-4.26352
-4.26358
-4.26358
-4.26357
-4.26356
-4.26355
-4.26354
-4.26354
-4.26353
-4.26353
-4.26353
-4.26353
-4.26353
-4.26353
-4.26353
-4.26353
-4.26358
-4.26357
-4.26356
-4.26354
-4.26354
-4.26353
-4.26352
-4.26352
-4.26352
-4.26352
-4.26352
-4.26352
-4.26352
-4.26352
-4.26352
-4.26356
-4.26355
-4.26353
-4.26352
-4.26351
-4.2635
-4.2635
-4.2635
-4.26351
-4.26352
-4.26353
-4.26354
-4.26355
-4.26355
-4.26356
-3.55133
-3.54952
-3.55581
-3.5643
-3.57232
-3.57898
-3.58415
-3.58799
-3.59075
-3.59268
-3.59397
-3.5948
-3.5953
-3.59557
-3.59568
-3.59899
-3.59435
-3.59651
-3.60111
-3.60598
-3.61025
-3.61368
-3.61627
-3.61816
-3.61949
-3.62038
-3.62096
-3.62131
-3.6215
-3.62158
-3.66522
-3.65835
-3.65664
-3.65736
-3.65888
-3.6605
-3.66194
-3.66308
-3.66394
-3.66456
-3.66498
-3.66526
-3.66543
-3.66552
-3.66556
-3.73192
-3.72417
-3.72027
-3.71849
-3.71779
-3.71761
-3.71764
-3.71774
-3.71786
-3.71795
-3.71802
-3.71807
-3.7181
-3.71812
-3.71813
-3.79233
-3.7847
-3.77999
-3.77708
-3.77528
-3.77415
-3.77343
-3.77296
-3.77266
-3.77245
-3.77232
-3.77223
-3.77218
-3.77215
-3.77213
-3.84519
-3.83821
-3.8335
-3.83031
-3.82814
-3.82665
-3.82563
-3.82492
-3.82444
-3.82411
-3.82389
-3.82374
-3.82366
-3.82361
-3.82358
-3.89113
-3.88501
-3.88069
-3.87765
-3.87549
-3.87397
-3.8729
-3.87215
-3.87163
-3.87127
-3.87103
-3.87087
-3.87078
-3.87073
-3.8707
-3.93125
-3.92601
-3.92222
-3.91949
-3.91753
-3.91613
-3.91513
-3.91442
-3.91393
-3.91359
-3.91336
-3.91322
-3.91312
-3.91307
-3.91305
-3.96656
-3.96214
-3.9589
-3.95654
-3.95483
-3.9536
-3.95271
-3.95209
-3.95165
-3.95135
-3.95115
-3.95101
-3.95093
-3.95089
-3.95087
-3.99796
-3.99424
-3.9915
-3.9895
-3.98804
-3.98699
-3.98623
-3.98569
-3.98531
-3.98505
-3.98488
-3.98477
-3.9847
-3.98466
-3.98464
-4.02613
-4.02302
-4.02073
-4.01904
-4.01781
-4.01692
-4.01628
-4.01583
-4.01551
-4.01529
-4.01514
-4.01504
-4.01499
-4.01495
-4.01494
-4.05167
-4.04907
-4.04715
-4.04574
-4.04471
-4.04396
-4.04342
-4.04304
-4.04277
-4.04259
-4.04246
-4.04238
-4.04234
-4.04231
-4.0423
-4.07502
-4.07286
-4.07125
-4.07007
-4.06921
-4.06859
-4.06814
-4.06782
-4.0676
-4.06744
-4.06734
-4.06727
-4.06723
-4.06721
-4.0672
-4.09658
-4.09477
-4.09343
-4.09245
-4.09173
-4.09121
-4.09083
-4.09057
-4.09038
-4.09025
-4.09017
-4.09011
-4.09008
-4.09006
-4.09005
-4.11664
-4.11513
-4.11401
-4.1132
-4.1126
-4.11216
-4.11185
-4.11163
-4.11148
-4.11137
-4.1113
-4.11126
-4.11123
-4.11121
-4.11121
-4.13547
-4.13421
-4.13328
-4.1326
-4.1321
-4.13174
-4.13149
-4.1313
-4.13118
-4.13109
-4.13103
-4.13099
-4.13097
-4.13095
-4.13095
-4.15328
-4.15223
-4.15146
-4.15089
-4.15048
-4.15018
-4.14997
-4.14982
-4.14971
-4.14964
-4.14959
-4.14956
-4.14954
-4.14953
-4.14953
-4.17025
-4.16938
-4.16874
-4.16827
-4.16792
-4.16767
-4.16749
-4.16736
-4.16728
-4.16721
-4.16717
-4.16715
-4.16713
-4.16712
-4.16712
-4.18656
-4.18583
-4.18529
-4.18488
-4.18459
-4.18437
-4.18422
-4.18411
-4.18403
-4.18398
-4.18394
-4.18392
-4.18391
-4.1839
-4.1839
-4.20234
-4.20172
-4.20125
-4.20089
-4.20063
-4.20043
-4.20028
-4.20017
-4.2001
-4.20005
-4.20001
-4.19999
-4.19998
-4.19997
-4.19997
-4.21775
-4.21722
-4.21679
-4.21644
-4.21616
-4.21595
-4.21578
-4.21566
-4.21557
-4.21551
-4.21547
-4.21544
-4.21542
-4.21542
-4.21541
-4.23295
-4.23249
-4.23208
-4.2317
-4.23135
-4.23104
-4.23078
-4.23058
-4.23043
-4.23032
-4.23025
-4.2302
-4.23017
-4.23016
-4.23015
-4.24813
-4.2478
-4.24744
-4.24703
-4.24652
-4.24593
-4.24534
-4.24486
-4.2445
-4.24425
-4.24407
-4.24396
-4.24389
-4.24385
-4.24384
-4.26344
-4.26342
-4.26339
-4.26337
-4.26329
-4.26178
-4.25935
-4.25784
-4.25687
-4.25622
-4.2558
-4.25553
-4.25537
-4.25529
-4.25526
-4.26345
-4.26342
-4.2634
-4.26338
-4.26338
-4.26336
-4.26335
-4.26334
-4.26335
-4.26269
-4.26226
-4.26199
-4.26184
-4.26175
-4.26172
-4.26342
-4.2634
-4.26338
-4.26338
-4.26338
-4.26338
-4.26338
-4.26337
-4.26337
-4.2633
-4.26332
-4.26333
-4.26333
-4.26333
-4.26332
-4.26346
-4.26343
-4.26341
-4.26339
-4.26338
-4.26336
-4.26335
-4.26333
-4.26333
-4.26332
-4.26332
-4.26332
-4.26332
-4.26332
-4.26332
-4.26349
-4.26346
-4.26344
-4.26341
-4.26339
-4.26337
-4.26336
-4.26335
-4.26334
-4.26334
-4.26334
-4.26333
-4.26333
-4.26333
-4.26333
-4.26352
-4.26349
-4.26346
-4.26344
-4.26342
-4.2634
-4.26339
-4.26338
-4.26337
-4.26336
-4.26336
-4.26336
-4.26336
-4.26335
-4.26335
-4.26354
-4.26351
-4.26349
-4.26347
-4.26345
-4.26344
-4.26343
-4.26342
-4.26341
-4.26341
-4.26341
-4.2634
-4.2634
-4.2634
-4.2634
-4.26355
-4.26353
-4.26351
-4.2635
-4.26349
-4.26348
-4.26347
-4.26346
-4.26346
-4.26345
-4.26345
-4.26345
-4.26344
-4.26344
-4.26344
-4.26355
-4.26354
-4.26352
-4.26351
-4.2635
-4.2635
-4.26349
-4.26349
-4.26348
-4.26348
-4.26348
-4.26348
-4.26348
-4.26348
-4.26348
-4.26355
-4.26354
-4.26352
-4.26352
-4.26351
-4.26351
-4.2635
-4.2635
-4.2635
-4.2635
-4.26349
-4.26349
-4.26349
-4.26349
-4.26349
-4.26356
-4.26354
-4.26353
-4.26352
-4.26351
-4.26351
-4.26351
-4.2635
-4.2635
-4.2635
-4.2635
-4.26351
-4.2635
-4.2635
-4.2635
-4.26356
-4.26355
-4.26353
-4.26352
-4.26352
-4.26351
-4.26351
-4.26351
-4.26351
-4.26351
-4.26351
-4.26351
-4.26351
-4.26351
-4.26351
-4.26357
-4.26355
-4.26354
-4.26353
-4.26352
-4.26352
-4.26352
-4.26352
-4.26352
-4.26352
-4.26352
-4.26352
-4.26352
-4.26352
-4.26352
-4.26358
-4.26356
-4.26355
-4.26354
-4.26353
-4.26352
-4.26352
-4.26351
-4.26351
-4.26351
-4.26351
-4.26351
-4.26351
-4.26351
-4.26351
-4.26359
-4.26357
-4.26356
-4.26355
-4.26354
-4.26354
-4.26353
-4.26353
-4.26352
-4.26352
-4.26352
-4.26352
-4.26352
-4.26352
-4.26352
-4.26358
-4.26357
-4.26356
-4.26355
-4.26353
-4.26352
-4.26352
-4.26352
-4.26351
-4.26351
-4.26351
-4.26351
-4.26351
-4.26351
-4.26351
-4.26357
-4.26355
-4.26353
-4.26352
-4.26351
-4.2635
-4.2635
-4.2635
-4.26351
-4.26351
-4.26352
-4.26353
-4.26354
-4.26355
-4.26355
-3.66121
-3.65621
-3.65639
-3.65856
-3.6612
-3.66365
-3.66567
-3.66723
-3.66838
-3.66919
-3.66974
-3.67011
-3.67033
-3.67045
-3.6705
-3.68835
-3.68242
-3.68106
-3.68177
-3.68316
-3.68462
-3.6859
-3.68692
-3.68769
-3.68824
-3.68862
-3.68887
-3.68902
-3.68911
-3.68914
-3.73089
-3.72413
-3.72117
-3.72015
-3.72005
-3.72033
-3.72069
-3.72103
-3.72132
-3.72153
-3.72168
-3.72178
-3.72185
-3.72188
-3.72189
-3.77847
-3.77144
-3.76748
-3.76529
-3.76409
-3.76344
-3.76308
-3.76289
-3.76278
-3.76272
-3.76268
-3.76266
-3.76265
-3.76265
-3.76265
-3.82525
-3.81847
-3.81416
-3.81141
-3.80964
-3.80848
-3.80771
-3.8072
-3.80686
-3.80663
-3.80648
-3.80638
-3.80632
-3.80628
-3.80627
-3.86878
-3.86257
-3.85837
-3.85551
-3.85355
-3.8522
-3.85127
-3.85062
-3.85017
-3.84987
-3.84967
-3.84954
-3.84946
-3.84941
-3.84939
-3.90836
-3.90287
-3.89902
-3.89631
-3.8944
-3.89305
-3.8921
-3.89143
-3.89097
-3.89065
-3.89044
-3.8903
-3.89022
-3.89017
-3.89015
-3.94408
-3.93932
-3.93591
-3.93348
-3.93173
-3.93049
-3.9296
-3.92897
-3.92854
-3.92824
-3.92803
-3.9279
-3.92782
-3.92778
-3.92776
-3.97629
-3.97222
-3.96928
-3.96715
-3.96562
-3.96451
-3.96372
-3.96316
-3.96277
-3.9625
-3.96232
-3.9622
-3.96213
-3.96209
-3.96207
-4.00544
-4.00199
-3.99948
-3.99766
-3.99633
-3.99538
-3.99469
-3.9942
-3.99386
-3.99363
-3.99347
-3.99337
-3.99331
-3.99327
-3.99326
-4.03197
-4.02906
-4.02694
-4.02538
-4.02426
-4.02344
-4.02285
-4.02244
-4.02215
-4.02195
-4.02181
-4.02172
-4.02167
-4.02164
-4.02163
-4.05627
-4.05382
-4.05203
-4.05072
-4.04976
-4.04907
-4.04858
-4.04822
-4.04798
-4.04781
-4.04769
-4.04762
-4.04757
-4.04755
-4.04754
-4.07869
-4.07663
-4.07512
-4.07402
-4.07321
-4.07263
-4.07221
-4.07192
-4.07171
-4.07156
-4.07147
-4.07141
-4.07137
-4.07135
-4.07134
-4.09951
-4.09778
-4.09652
-4.09559
-4.09491
-4.09442
-4.09407
-4.09382
-4.09365
-4.09353
-4.09345
-4.0934
-4.09336
-4.09335
-4.09334
-4.11899
-4.11755
-4.11649
-4.11571
-4.11514
-4.11473
-4.11444
-4.11423
-4.11409
-4.11399
-4.11392
-4.11388
-4.11385
-4.11383
-4.11383
-4.13736
-4.13615
-4.13526
-4.13461
-4.13414
-4.1338
-4.13355
-4.13338
-4.13326
-4.13317
-4.13312
-4.13308
-4.13306
-4.13305
-4.13304
-4.15479
-4.15378
-4.15304
-4.1525
-4.1521
-4.15182
-4.15161
-4.15147
-4.15137
-4.1513
-4.15125
-4.15122
-4.1512
-4.15119
-4.15119
-4.17145
-4.17061
-4.16999
-4.16953
-4.1692
-4.16896
-4.16879
-4.16867
-4.16858
-4.16852
-4.16848
-4.16846
-4.16844
-4.16843
-4.16843
-4.18749
-4.18679
-4.18626
-4.18587
-4.18558
-4.18537
-4.18522
-4.18512
-4.18504
-4.18499
-4.18495
-4.18493
-4.18492
-4.18491
-4.18491
-4.20304
-4.20244
-4.20198
-4.20163
-4.20137
-4.20118
-4.20103
-4.20093
-4.20086