/*--------------------------------*- C++ -*----------------------------------*\
  =========                 |
  \\      /  F ield         | OpenFOAM: The Open Source CFD Toolbox
   \\    /   O peration     | Website:  https://openfoam.org
    \\  /    A nd           | Version:  6
     \\/     M anipulation  |
\*---------------------------------------------------------------------------*/
FoamFile
{
    version     2.0;
    format      ascii;
    class       volScalarField;
    location    "0";
    object      T;
}
// * * * * * * * * * * * * * * * * * * * * * * * * * * * * * * * * * * * * * //

dimensions      [0 0 0 1 0 0 0];

boundaryField
{    
    side //top
    {
        //type            zeroGradient;
        type            fixedValue;
        value           uniform 1273;
    }

    top  //side
    {
        type            codedFixedValue;
        value           uniform 836;

        redirectType	codedFixedValue;
        
        codeInclude
        #{
        	#include "fvCFD.H"
        	#include <cmath>
        #};
        
        codeOptions
        #{
        	-I$(LIB_SRC)/finiteVolume/lnInclude \
        	-I$(LIB_SRC)/meshTools/lnInclude
        #};
        
        
        code
        #{
        	const fvPatch& boundaryPatch = patch();
        	const vectorField& Cf = boundaryPatch.Cf();
        	scalarField& field = *this;
        	
        	// thermophysical parameters of the PCM (water)
        	const double Cp	= 578;
        	const double rho = 8860;
        	const double k = 23.6;

        	const double L 	= 0.2;

        	const double T_H = 1273;
        	const double T_0 = 836;

        	const double alfa = k/(rho*Cp);
        	
        	const scalar t = this->db().time().value(); //time
        	
        	forAll(Cf, faceI)
        	{
        		const scalar z = Cf[faceI].z(); // z coordinate of the face i
        		const scalar r = L - z;

        		const scalar denominator = 2*std::sqrt(alfa*t);  // liquid front position
        		
        		field[faceI] = T_H - (T_H-T_0)*std::erf(r/2/std::sqrt(alfa*t));
        	}
        	
        #};

        //type            fixedValue;
        //value           uniform 845;
        //type            zeroGradient;
    }

    bottom
    {
        //type            fixedValue;
        //value           uniform 504.49;
        type            zeroGradient;
    }
/*
    south
    {
        type            zeroGradient;
        //type            fixedValue;
        //value           uniform 260;
    }

    frontAndBack
    {
        type            empty;
    }
*/
}

internalField   nonuniform List<scalar> 
120400
(
835.796
835.915
835.96
835.98
835.99
835.994
835.997
835.998
835.999
836
836
836
836
836
836
835.99
835.994
835.999
836.002
836.003
836.004
836.004
836.003
836.003
836.002
836.002
836.001
836.001
836
836
836.035
836.027
836.022
836.019
836.016
836.013
836.011
836.009
836.007
836.005
836.004
836.003
836.002
836.001
836
836.054
836.044
836.037
836.03
836.025
836.021
836.017
836.014
836.011
836.008
836.006
836.005
836.003
836.002
836.001
836.068
836.057
836.047
836.039
836.032
836.027
836.022
836.018
836.014
836.011
836.008
836.006
836.004
836.002
836.001
836.081
836.068
836.057
836.047
836.039
836.032
836.026
836.021
836.017
836.013
836.01
836.007
836.005
836.003
836.001
836.094
836.079
836.066
836.055
836.046
836.038
836.031
836.025
836.02
836.016
836.012
836.008
836.006
836.003
836.001
836.109
836.092
836.077
836.065
836.054
836.044
836.036
836.029
836.023
836.018
836.014
836.01
836.007
836.004
836.001
836.126
836.107
836.09
836.075
836.063
836.052
836.042
836.034
836.027
836.021
836.016
836.012
836.008
836.004
836.001
836.147
836.125
836.105
836.088
836.073
836.061
836.05
836.04
836.032
836.025
836.019
836.014
836.009
836.005
836.002
836.172
836.146
836.123
836.103
836.086
836.071
836.058
836.047
836.038
836.029
836.022
836.016
836.011
836.006
836.002
836.203
836.173
836.146
836.122
836.102
836.084
836.069
836.056
836.045
836.035
836.026
836.019
836.012
836.007
836.002
836.242
836.206
836.174
836.146
836.122
836.101
836.083
836.067
836.053
836.041
836.031
836.023
836.015
836.008
836.003
836.29
836.247
836.209
836.176
836.146
836.121
836.099
836.081
836.064
836.05
836.038
836.027
836.018
836.01
836.003
836.351
836.299
836.253
836.213
836.178
836.148
836.121
836.098
836.078
836.061
836.046
836.033
836.022
836.012
836.004
836.428
836.366
836.311
836.262
836.219
836.182
836.149
836.121
836.096
836.075
836.057
836.041
836.027
836.015
836.005
836.529
836.453
836.386
836.326
836.273
836.226
836.186
836.151
836.12
836.094
836.071
836.051
836.034
836.019
836.006
836.66
836.569
836.485
836.411
836.345
836.286
836.235
836.191
836.152
836.119
836.09
836.065
836.043
836.024
836.008
836.836
836.724
836.621
836.527
836.444
836.37
836.304
836.247
836.198
836.154
836.117
836.084
836.056
836.031
836.01
837.077
836.94
836.812
836.693
836.586
836.49
836.404
836.329
836.263
836.205
836.155
836.112
836.074
836.041
836.013
837.413
837.248
837.089
836.939
836.799
836.672
836.557
836.455
836.364
836.285
836.216
836.156
836.103
836.058
836.018
837.892
837.703
837.511
837.322
837.14
836.968
836.809
836.664
836.535
836.42
836.318
836.23
836.153
836.085
836.027
838.576
838.382
838.171
837.948
837.719
837.489
837.264
837.05
836.852
836.673
836.512
836.37
836.246
836.138
836.044
839.522
839.374
839.199
838.994
838.758
838.489
838.192
837.867
837.534
837.22
836.933
836.676
836.45
836.252
836.08
840.715
840.698
840.675
840.647
840.613
840.559
840.511
840.085
839.27
838.57
837.957
837.418
836.943
836.529
836.168
864.343
864.431
864.36
863.289
860.789
858.469
857.001
852.289
841.122
840.502
839.798
838.943
838.04
837.168
836.373
863.217
863.988
864.323
864.25
863.901
863.405
862.761
862.17
860.021
857.981
855.8
852.805
848.217
842.936
838.182
860.443
861.765
862.7
863.169
863.274
863.087
862.625
861.96
860.687
859.62
858.726
856.26
851.139
844.721
838.756
857.591
859.049
860.525
861.464
861.904
861.957
861.69
861.046
860.173
859.42
858.576
856.101
850.941
844.582
838.705
856.232
857.217
858.54
859.701
860.38
860.567
860.414
859.947
859.495
859.068
858.173
855.295
849.967
843.98
838.526
856.092
856.462
857.322
858.295
858.911
859.126
859.135
858.963
858.808
858.637
857.807
854.847
849.766
843.98
838.532
856.11
856.296
856.758
857.356
857.744
857.926
858.02
858.062
858.168
858.084
856.627
852.793
847.187
841.498
837.743
856.188
856.219
856.452
856.784
857.048
857.225
857.352
857.473
857.597
857.394
855.54
851.162
845.759
841.253
837.664
856.183
856.218
856.294
856.496
856.707
856.843
856.939
857.051
857.31
857.427
855.167
850.316
845.184
840.996
837.582
855.824
856.074
856.172
856.329
856.58
856.851
857.095
857.34
857.449
856.229
852.648
847.994
844.004
840.753
837.505
855.212
855.83
856.203
856.401
856.579
856.678
856.662
856.464
855.5
853.004
849.434
845.943
842.799
839.856
837.228
854.387
854.985
855.507
855.928
856.238
856.531
856.665
855.963
853.95
850.863
847.477
844.291
841.476
839.065
836.971
854.622
855.123
855.6
856.058
856.327
856.354
855.504
853.519
850.601
847.709
845.078
842.992
841.276
838.963
836.94
853.876
854.337
854.84
855.243
855.466
855.384
854.501
852.849
850.953
849.105
847.813
846.39
843.993
841.163
837.636
856.214
856.176
856.044
855.904
855.65
855.209
854.571
853.817
853.023
852.059
850.788
848.904
846.249
842.799
838.537
835.965
835.976
835.987
835.993
835.997
835.999
836
836.001
836.001
836.001
836.001
836
836
836
836
836.013
836.009
836.008
836.008
836.007
836.006
836.005
836.005
836.004
836.003
836.002
836.002
836.001
836.001
836
836.039
836.031
836.025
836.021
836.017
836.014
836.012
836.009
836.007
836.006
836.004
836.003
836.002
836.001
836
836.056
836.046
836.038
836.031
836.025
836.021
836.017
836.014
836.011
836.008
836.006
836.005
836.003
836.002
836.001
836.069
836.057
836.047
836.039
836.032
836.027
836.022
836.018
836.014
836.011
836.008
836.006
836.004
836.002
836.001
836.081
836.068
836.057
836.047
836.039
836.032
836.026
836.021
836.017
836.013
836.01
836.007
836.005
836.003
836.001
836.094
836.079
836.066
836.055
836.046
836.038
836.031
836.025
836.02
836.015
836.012
836.008
836.006
836.003
836.001
836.109
836.092
836.077
836.064
836.053
836.044
836.036
836.029
836.023
836.018
836.014
836.01
836.006
836.004
836.001
836.126
836.106
836.09
836.075
836.062
836.051
836.042
836.034
836.027
836.021
836.016
836.011
836.008
836.004
836.001
836.147
836.124
836.105
836.088
836.073
836.06
836.049
836.04
836.032
836.025
836.019
836.013
836.009
836.005
836.002
836.172
836.146
836.123
836.103
836.086
836.071
836.058
836.047
836.037
836.029
836.022
836.016
836.01
836.006
836.002
836.203
836.172
836.145
836.122
836.101
836.084
836.069
836.055
836.044
836.034
836.026
836.019
836.012
836.007
836.002
836.242
836.205
836.173
836.145
836.121
836.1
836.082
836.066
836.053
836.041
836.031
836.022
836.015
836.008
836.003
836.29
836.246
836.208
836.175
836.146
836.121
836.099
836.08
836.064
836.05
836.037
836.027
836.018
836.01
836.003
836.351
836.299
836.253
836.212
836.177
836.147
836.12
836.097
836.077
836.06
836.045
836.033
836.022
836.012
836.004
836.428
836.366
836.31
836.261
836.218
836.181
836.148
836.12
836.095
836.074
836.056
836.04
836.027
836.015
836.005
836.529
836.453
836.385
836.324
836.271
836.225
836.185
836.15
836.119
836.093
836.07
836.05
836.033
836.019
836.006
836.661
836.568
836.484
836.409
836.343
836.285
836.234
836.19
836.151
836.118
836.089
836.064
836.042
836.024
836.007
836.837
836.724
836.62
836.526
836.442
836.368
836.303
836.246
836.196
836.153
836.115
836.083
836.055
836.031
836.01
837.077
836.939
836.81
836.691
836.584
836.487
836.402
836.327
836.261
836.204
836.154
836.111
836.073
836.041
836.013
837.413
837.247
837.087
836.936
836.796
836.668
836.554
836.451
836.361
836.283
836.214
836.154
836.102
836.057
836.018
837.892
837.701
837.508
837.318
837.135
836.963
836.804
836.659
836.53
836.416
836.315
836.227
836.151
836.084
836.027
838.575
838.379
838.166
837.942
837.711
837.48
837.255
837.042
836.844
836.666
836.506
836.366
836.243
836.136
836.043
839.521
839.37
839.193
838.986
838.748
838.478
838.179
837.853
837.521
837.208
836.923
836.668
836.444
836.249
836.079
840.719
840.695
840.671
840.644
840.609
840.556
840.51
840.067
839.257
838.557
837.946
837.408
836.936
836.524
836.166
864.565
864.586
864.075
861.749
858.997
857.582
856.43
851.441
841.122
840.504
839.835
838.987
838.076
837.189
836.38
863.479
864.185
864.466
864.324
863.841
863.176
862.31
861.312
858.784
857.545
856.35
853.31
848.486
843.145
838.262
860.859
862.072
862.821
863.226
863.197
862.891
862.274
861.406
860.471
859.725
858.949
856.702
851.692
845.168
838.911
858.133
859.334
860.087
860.643
861.014
861.21
861.127
860.732
860.219
859.664
859.061
857.239
852.387
845.551
839.016
856.047
856.923
857.632
858.27
858.867
859.334
859.603
859.625
859.508
859.283
858.862
856.835
851.632
844.912
838.792
855.378
855.892
856.437
856.937
857.425
857.903
858.33
858.59
858.708
858.665
858.115
855.595
850.464
844.391
838.671
855.152
855.522
856
856.364
856.672
857.026
857.4
857.714
857.983
858.095
857.333
854.434
849.387
843.726
838.466
855.037
855.155
855.599
856.071
856.423
856.683
856.937
857.216
857.486
857.485
856.345
852.591
846.87
841.357
837.695
855.043
855.142
855.36
855.777
856.194
856.487
856.659
856.816
857.048
857.36
856.166
851.786
846.027
841.074
837.604
854.869
855.302
855.405
855.572
855.935
856.323
856.661
856.955
857.272
856.929
854.184
849.234
844.528
840.837
837.529
854.406
855.263
855.673
855.799
856.037
856.275
856.392
856.425
856.078
854.289
850.756
846.783
843.292
840.114
837.308
854.097
854.602
855.205
855.557
855.789
856.072
856.371
856.41
854.96
852.159
848.602
845.177
842.102
839.4
837.073
854.531
854.885
855.381
855.714
855.942
856.082
855.794
854.386
851.746
848.477
845.583
843.203
841.299
838.973
836.942
854.104
854.532
854.935
855.2
855.352
855.384
854.714
853.183
851.06
849.01
847.314
845.737
843.556
841.039
837.595
856.162
856.026
855.859
855.645
855.325
854.818
854.113
853.282
852.376
851.398
850.161
848.407
845.924
842.621
838.476
836.013
836.009
836.008
836.008
836.007
836.006
836.005
836.005
836.004
836.003
836.002
836.002
836.001
836.001
836
836.03
836.023
836.019
836.015
836.013
836.011
836.009
836.007
836.006
836.005
836.003
836.002
836.002
836.001
836
836.046
836.037
836.03
836.024
836.02
836.017
836.013
836.011
836.009
836.007
836.005
836.004
836.002
836.001
836
836.058
836.048
836.039
836.033
836.027
836.022
836.018
836.014
836.011
836.009
836.007
836.005
836.003
836.002
836.001
836.07
836.058
836.048
836.04
836.033
836.027
836.022
836.018
836.014
836.011
836.008
836.006
836.004
836.002
836.001
836.081
836.068
836.057
836.047
836.039
836.032
836.026
836.021
836.017
836.013
836.01
836.007
836.005
836.003
836.001
836.094
836.079
836.066
836.055
836.046
836.038
836.031
836.025
836.02
836.015
836.012
836.008
836.006
836.003
836.001
836.109
836.092
836.077
836.064
836.053
836.044
836.036
836.029
836.023
836.018
836.014
836.01
836.006
836.004
836.001
836.126
836.106
836.089
836.075
836.062
836.051
836.042
836.034
836.027
836.021
836.016
836.011
836.008
836.004
836.001
836.147
836.124
836.104
836.087
836.073
836.06
836.049
836.04
836.031
836.025
836.018
836.013
836.009
836.005
836.002
836.172
836.146
836.123
836.103
836.085
836.07
836.058
836.047
836.037
836.029
836.022
836.016
836.01
836.006
836.002
836.203
836.172
836.145
836.121
836.101
836.083
836.068
836.055
836.044
836.034
836.026
836.019
836.012
836.007
836.002
836.242
836.205
836.173
836.145
836.121
836.1
836.082
836.066
836.052
836.041
836.031
836.022
836.015
836.008
836.003
836.29
836.246
836.208
836.174
836.145
836.12
836.098
836.08
836.063
836.049
836.037
836.027
836.018
836.01
836.003
836.351
836.299
836.252
836.212
836.177
836.146
836.12
836.097
836.077
836.06
836.045
836.033
836.022
836.012
836.004
836.429
836.366
836.31
836.26
836.217
836.18
836.147
836.119
836.095
836.074
836.056
836.04
836.027
836.015
836.005
836.53
836.453
836.384
836.324
836.271
836.224
836.184
836.149
836.119
836.092
836.07
836.05
836.033
836.019
836.006
836.662
836.568
836.484
836.409
836.342
836.284
836.233
836.189
836.151
836.117
836.089
836.064
836.042
836.024
836.007
836.838
836.724
836.619
836.525
836.441
836.367
836.302
836.245
836.195
836.152
836.115
836.083
836.055
836.031
836.01
837.078
836.939
836.809
836.69
836.582
836.486
836.4
836.325
836.26
836.203
836.153
836.11
836.073
836.041
836.013
837.414
837.246
837.086
836.934
836.794
836.666
836.551
836.449
836.36
836.281
836.213
836.153
836.101
836.057
836.018
837.892
837.699
837.505
837.314
837.131
836.959
836.8
836.656
836.527
836.413
836.313
836.225
836.149
836.084
836.026
838.574
838.375
838.161
837.936
837.704
837.473
837.248
837.034
836.838
836.66
836.502
836.362
836.24
836.134
836.043
839.519
839.366
839.187
838.978
838.737
838.465
838.164
837.837
837.505
837.194
836.911
836.659
836.438
836.245
836.078
840.719
840.694
840.669
840.638
840.602
840.549
840.508
840.023
839.217
838.522
837.917
837.387
836.922
836.516
836.163
864.262
864.178
863.176
860.495
858.208
856.943
855.214
850.047
840.934
840.501
839.854
839.01
838.095
837.201
836.384
862.874
863.585
863.872
863.827
863.447
862.908
862.169
861.487
860.446
859.551
858.017
854.612
849.426
843.681
838.434
859.924
860.992
861.697
862.208
862.419
862.312
861.91
861.403
860.844
860.298
859.724
857.908
852.862
845.806
839.091
856.94
857.888
858.59
859.287
859.852
860.265
860.482
860.459
860.32
860.07
859.549
857.634
852.751
845.848
839.12
855.416
855.98
856.45
857.007
857.623
858.237
858.796
859.23
859.491
859.573
859.308
857.526
852.551
845.575
839.005
854.763
855.26
855.645
855.985
856.425
856.997
857.638
858.233
858.71
858.981
858.751
856.671
851.52
844.953
838.828
854.373
854.856
855.408
855.814
856.085
856.426
856.971
857.557
858.062
858.361
857.875
855.142
849.961
844.069
838.583
854.456
854.549
855.025
855.673
856.149
856.422
856.705
857.149
857.6
857.676
856.402
852.668
846.987
841.4
837.709
854.464
854.545
854.779
855.217
855.756
856.186
856.463
856.716
856.975
857.155
856.16
852.169
846.399
841.123
837.62
854.391
854.786
854.869
854.929
855.265
855.755
856.187
856.504
856.881
856.992
855.113
850.366
845.136
840.901
837.55
854.08
854.922
855.163
855.168
855.419
855.825
856.092
856.216
856.286
855.412
852.38
847.969
843.931
840.525
837.43
853.775
854.514
855.023
855.163
855.378
855.644
855.927
856.256
856.003
853.914
850.231
846.263
842.756
839.741
837.179
854.492
854.961
855.276
855.459
855.637
855.796
855.883
855.271
853.385
850.106
846.629
843.701
841.34
838.996
836.949
854.204
854.572
854.868
855.109
855.277
855.338
855.007
853.904
851.852
849.444
847.309
845.432
843.291
840.954
837.568
856.153
855.988
855.767
855.512
855.169
854.682
854.013
853.154
852.175
851.134
849.878
848.181
845.787
842.551
838.454
836.034
836.026
836.021
836.018
836.015
836.012
836.01
836.008
836.006
836.005
836.004
836.003
836.002
836.001
836
836.041
836.033
836.027
836.022
836.018
836.015
836.012
836.01
836.008
836.006
836.005
836.003
836.002
836.001
836
836.051
836.042
836.034
836.028
836.023
836.019
836.015
836.012
836.01
836.008
836.006
836.004
836.003
836.002
836
836.061
836.05
836.042
836.035
836.029
836.023
836.019
836.015
836.012
836.009
836.007
836.005
836.003
836.002
836.001
836.071
836.059
836.049
836.041
836.034
836.028
836.023
836.018
836.015
836.011
836.009
836.006
836.004
836.002
836.001
836.082
836.069
836.057
836.048
836.04
836.033
836.027
836.022
836.017
836.013
836.01
836.007
836.005
836.003
836.001
836.094
836.079
836.066
836.055
836.046
836.038
836.031
836.025
836.02
836.015
836.012
836.008
836.006
836.003
836.001
836.109
836.092
836.077
836.064
836.053
836.044
836.036
836.029
836.023
836.018
836.014
836.01
836.006
836.004
836.001
836.126
836.106
836.089
836.075
836.062
836.051
836.042
836.034
836.027
836.021
836.016
836.011
836.007
836.004
836.001
836.147
836.124
836.104
836.087
836.072
836.06
836.049
836.039
836.031
836.024
836.018
836.013
836.009
836.005
836.002
836.172
836.145
836.122
836.102
836.085
836.07
836.057
836.046
836.037
836.029
836.022
836.016
836.01
836.006
836.002
836.203
836.172
836.145
836.121
836.101
836.083
836.068
836.055
836.044
836.034
836.026
836.018
836.012
836.007
836.002
836.242
836.205
836.173
836.145
836.12
836.099
836.081
836.066
836.052
836.041
836.031
836.022
836.015
836.008
836.003
836.29
836.246
836.207
836.174
836.145
836.12
836.098
836.079
836.063
836.049
836.037
836.027
836.018
836.01
836.003
836.351
836.298
836.252
836.211
836.176
836.146
836.119
836.097
836.077
836.06
836.045
836.032
836.021
836.012
836.004
836.429
836.365
836.309
836.26
836.217
836.179
836.147
836.119
836.095
836.074
836.056
836.04
836.026
836.015
836.005
836.529
836.452
836.384
836.323
836.27
836.224
836.184
836.149
836.118
836.092
836.07
836.05
836.033
836.018
836.006
836.662
836.568
836.483
836.408
836.342
836.284
836.233
836.189
836.15
836.117
836.088
836.063
836.042
836.023
836.007
836.838
836.723
836.618
836.524
836.44
836.366
836.301
836.244
836.195
836.152
836.115
836.082
836.055
836.03
836.01
837.078
836.938
836.808
836.689
836.581
836.485
836.399
836.324
836.259
836.202
836.153
836.11
836.073
836.041
836.013
837.413
837.245
837.084
836.932
836.792
836.664
836.55
836.448
836.358
836.28
836.212
836.152
836.101
836.056
836.018
837.89
837.697
837.502
837.31
837.127
836.955
836.796
836.652
836.524
836.411
836.311
836.224
836.149
836.083
836.026
838.572
838.371
838.156
837.929
837.697
837.465
837.24
837.027
836.831
836.654
836.497
836.359
836.238
836.133
836.042
839.516
839.361
839.18
838.968
838.725
838.45
838.147
837.818
837.487
837.177
836.898
836.649
836.431
836.241
836.076
840.718
840.689
840.668
840.631
840.594
840.543
840.505
839.973
839.162
838.473
837.877
837.356
836.901
836.504
836.16
863.88
863.715
862.747
860.131
857.895
856.818
854.754
849.797
840.863
840.501
839.838
838.992
838.081
837.192
836.381
861.981
862.774
863.193
863.285
863.014
862.636
862.073
861.642
861.01
860.197
858.683
855.201
849.832
843.86
838.478
858.824
859.835
860.599
861.135
861.521
861.661
861.517
861.245
860.883
860.467
859.997
858.383
853.513
846.29
839.25
857.094
857.667
858.142
858.64
859.179
859.673
860.009
860.18
860.204
860.113
859.806
858.238
853.479
846.325
839.266
855.886
856.271
856.632
857.042
857.516
858.081
858.643
859.114
859.449
859.614
859.455
857.848
853.03
845.984
839.154
854.889
855.287
855.65
855.982
856.344
856.85
857.461
858.097
858.661
859.037
858.96
857.196
852.205
845.416
838.972
854.557
854.893
855.317
855.714
855.995
856.271
856.813
857.464
858.058
858.464
858.191
855.728
850.529
844.383
838.66
854.721
854.844
855.136
855.622
856.062
856.295
856.533
857.024
857.594
857.765
856.529
852.807
847.16
841.484
837.735
855.023
854.991
854.976
855.138
855.539
855.968
856.251
856.544
856.935
857.119
855.979
852.037
846.308
841.185
837.64
855.042
854.91
854.751
854.664
854.837
855.317
855.778
856.125
856.519
856.891
855.582
851.135
845.621
840.96
837.568
854.633
854.563
854.515
854.57
854.835
855.357
855.8
855.977
856.105
855.845
853.635
849.166
844.549
840.606
837.456
853.965
854.039
854.167
854.342
854.696
855.182
855.435
855.661
856.139
855.578
852.573
848.111
843.828
840.27
837.338
854.361
854.513
854.686
854.967
855.258
855.494
855.686
855.875
855.317
852.916
848.852
844.798
841.451
839.059
836.969
854.115
854.389
854.657
854.955
855.157
855.285
855.332
854.894
853.395
850.738
847.876
845.402
843.13
840.943
837.564
856.088
855.876
855.681
855.453
855.148
854.741
854.182
853.365
852.287
851.086
849.766
848.084
845.752
842.546
838.452
836.044
836.036
836.029
836.024
836.02
836.016
836.013
836.011
836.009
836.007
836.005
836.004
836.002
836.001
836
836.048
836.04
836.033
836.027
836.022
836.018
836.015
836.012
836.01
836.007
836.006
836.004
836.003
836.001
836
836.055
836.046
836.038
836.031
836.026
836.021
836.017
836.014
836.011
836.009
836.006
836.005
836.003
836.002
836.001
836.063
836.053
836.044
836.036
836.03
836.025
836.02
836.016
836.013
836.01
836.008
836.005
836.004
836.002
836.001
836.072
836.06
836.05
836.042
836.035
836.029
836.023
836.019
836.015
836.012
836.009
836.006
836.004
836.002
836.001
836.083
836.069
836.058
836.048
836.04
836.033
836.027
836.022
836.017
836.013
836.01
836.007
836.005
836.003
836.001
836.095
836.08
836.067
836.056
836.046
836.038
836.031
836.025
836.02
836.016
836.012
836.008
836.006
836.003
836.001
836.109
836.092
836.077
836.064
836.053
836.044
836.036
836.029
836.023
836.018
836.014
836.01
836.006
836.004
836.001
836.126
836.106
836.089
836.075
836.062
836.051
836.042
836.034
836.027
836.021
836.016
836.011
836.007
836.004
836.001
836.147
836.124
836.104
836.087
836.072
836.06
836.049
836.039
836.031
836.024
836.018
836.013
836.009
836.005
836.002
836.172
836.145
836.122
836.102
836.085
836.07
836.057
836.046
836.037
836.029
836.022
836.016
836.01
836.006
836.002
836.203
836.172
836.144
836.121
836.101
836.083
836.068
836.055
836.044
836.034
836.026
836.018
836.012
836.007
836.002
836.241
836.204
836.172
836.144
836.12
836.099
836.081
836.066
836.052
836.041
836.031
836.022
836.015
836.008
836.003
836.29
836.245
836.207
836.174
836.145
836.119
836.098
836.079
836.063
836.049
836.037
836.027
836.018
836.01
836.003
836.35
836.298
836.251
836.211
836.176
836.145
836.119
836.096
836.077
836.06
836.045
836.032
836.021
836.012
836.004
836.428
836.365
836.308
836.259
836.216
836.179
836.147
836.119
836.094
836.074
836.055
836.04
836.026
836.015
836.005
836.529
836.452
836.383
836.323
836.27
836.223
836.183
836.148
836.118
836.092
836.069
836.05
836.033
836.018
836.006
836.661
836.567
836.482
836.407
836.341
836.283
836.232
836.188
836.15
836.117
836.088
836.063
836.042
836.023
836.007
836.837
836.722
836.617
836.523
836.439
836.365
836.3
836.244
836.194
836.151
836.114
836.082
836.054
836.03
836.01
837.077
836.937
836.806
836.687
836.58
836.483
836.398
836.324
836.258
836.202
836.152
836.11
836.073
836.041
836.013
837.411
837.243
837.082
836.93
836.789
836.662
836.548
836.446
836.357
836.279
836.211
836.152
836.101
836.056
836.018
837.887
837.693
837.498
837.307
837.123
836.951
836.793
836.649
836.522
836.409
836.309
836.223
836.148
836.083
836.026
838.568
838.366
838.15
837.922
837.689
837.456
837.231
837.019
836.824
836.649
836.493
836.356
836.236
836.132
836.042
839.512
839.356
839.172
838.958
838.711
838.431
838.12
837.784
837.455
837.152
836.878
836.635
836.422
836.236
836.075
840.711
840.69
840.661
840.627
840.585
840.532
840.413
839.714
838.944
838.314
837.766
837.281
836.854
836.479
836.152
863.431
863.229
862.422
859.879
857.728
856.4
852.83
847.468
840.631
840.358
839.735
838.919
838.031
837.164
836.372
861.198
861.969
862.381
862.61
862.549
862.368
862.035
861.818
861.352
860.682
859.518
856.177
850.464
844.126
838.544
858.705
859.568
860.315
860.906
861.322
861.521
861.442
861.212
860.889
860.504
860.008
858.254
853.367
846.224
839.238
857.219
857.757
858.333
858.869
859.348
859.738
859.965
860.03
859.991
859.897
859.803
858.817
854.529
847.084
839.5
856.194
856.62
857.015
857.408
857.806
858.235
858.63
858.946
859.179
859.343
859.396
858.237
853.655
846.387
839.268
855.2
855.59
855.91
856.24
856.617
857.078
857.595
858.098
858.537
858.897
858.93
857.376
852.529
845.65
839.047
854.857
855.008
855.25
855.51
855.79
856.213
856.766
857.4
857.986
858.429
858.277
856.022
850.8
844.478
838.673
854.732
854.798
855.05
855.44
855.77
855.966
856.312
856.875
857.497
857.846
856.971
853.387
847.493
841.483
837.735
854.871
854.88
854.972
855.294
855.699
855.963
856.118
856.433
856.919
857.151
855.919
851.79
846.155
841.216
837.649
854.984
854.935
854.84
854.872
855.112
855.488
855.752
855.962
856.37
856.788
855.513
851.161
845.742
841.027
837.589
854.855
854.76
854.631
854.576
854.724
855.217
855.628
855.828
856.11
855.902
853.833
849.561
844.874
840.669
837.476
854.169
854.164
854.147
854.174
854.24
854.55
855.082
855.341
855.603
855.89
854.26
850.184
845.191
840.515
837.426
854.337
854.383
854.438
854.514
854.606
854.96
855.398
855.609
855.848
854.943
851.525
846.517
841.867
839.132
836.983
854.034
854.22
854.418
854.649
854.896
855.172
855.307
855.126
854.404
852.189
848.86
845.619
842.995
840.973
837.574
855.965
855.76
855.6
855.402
855.155
854.812
854.32
853.606
852.604
851.285
849.769
848.064
845.787
842.596
838.468
836.05
836.041
836.034
836.028
836.023
836.019
836.016
836.013
836.01
836.008
836.006
836.004
836.003
836.002
836
836.053
836.044
836.036
836.03
836.025
836.021
836.017
836.013
836.011
836.008
836.006
836.005
836.003
836.002
836.001
836.058
836.048
836.04
836.033
836.028
836.023
836.019
836.015
836.012
836.009
836.007
836.005
836.003
836.002
836.001
836.065
836.054
836.045
836.038
836.031
836.026
836.021
836.017
836.013
836.01
836.008
836.006
836.004
836.002
836.001
836.073
836.061
836.051
836.043
836.035
836.029
836.024
836.019
836.015
836.012
836.009
836.006
836.004
836.002
836.001
836.083
836.07
836.058
836.049
836.04
836.033
836.027
836.022
836.017
836.014
836.01
836.007
836.005
836.003
836.001
836.095
836.08
836.067
836.056
836.046
836.038
836.031
836.025
836.02
836.016
836.012
836.008
836.006
836.003
836.001
836.109
836.092
836.077
836.064
836.053
836.044
836.036
836.029
836.023
836.018
836.014
836.01
836.006
836.004
836.001
836.126
836.106
836.089
836.074
836.062
836.051
836.042
836.034
836.027
836.021
836.016
836.011
836.007
836.004
836.001
836.146
836.123
836.104
836.087
836.072
836.059
836.049
836.039
836.031
836.024
836.018
836.013
836.009
836.005
836.002
836.171
836.145
836.122
836.102
836.085
836.07
836.057
836.046
836.037
836.029
836.022
836.015
836.01
836.006
836.002
836.202
836.171
836.144
836.12
836.1
836.083
836.068
836.055
836.044
836.034
836.026
836.018
836.012
836.007
836.002
836.24
836.204
836.172
836.144
836.12
836.099
836.081
836.065
836.052
836.04
836.03
836.022
836.014
836.008
836.003
836.288
836.245
836.206
836.173
836.144
836.119
836.097
836.079
836.063
836.049
836.037
836.026
836.017
836.01
836.003
836.349
836.297
836.251
836.21
836.175
836.145
836.119
836.096
836.076
836.059
836.045
836.032
836.021
836.012
836.004
836.427
836.363
836.308
836.259
836.216
836.179
836.146
836.118
836.094
836.073
836.055
836.04
836.026
836.015
836.005
836.527
836.45
836.382
836.322
836.269
836.223
836.183
836.148
836.118
836.092
836.069
836.05
836.033
836.018
836.006
836.658
836.565
836.481
836.406
836.34
836.282
836.232
836.188
836.15
836.116
836.088
836.063
836.042
836.023
836.007
836.834
836.72
836.616
836.522
836.438
836.364
836.3
836.243
836.194
836.151
836.114
836.082
836.054
836.03
836.01
837.073
836.934
836.804
836.685
836.578
836.482
836.397
836.323
836.258
836.201
836.152
836.109
836.072
836.04
836.013
837.407
837.24
837.079
836.927
836.787
836.66
836.546
836.445
836.356
836.278
836.21
836.151
836.1
836.056
836.018
837.883
837.689
837.494
837.302
837.119
836.947
836.789
836.646
836.519
836.406
836.308
836.222
836.147
836.082
836.026
838.562
838.361
838.143
837.915
837.681
837.449
837.224
837.012
836.818
836.643
836.489
836.353
836.234
836.131
836.041
839.507
839.35
839.165
838.949
838.699
838.417
838.102
837.764
837.438
837.137
836.867
836.627
836.416
836.233
836.074
840.711
840.685
840.659
840.624
840.58
840.527
840.329
839.549
838.859
838.26
837.729
837.256
836.837
836.469
836.149
862.97
862.81
862.236
860.566
858.74
856.838
851.669
841.483
840.62
840.335
839.71
838.901
838.02
837.158
836.37
860.615
861.302
861.699
861.907
861.986
861.878
861.807
861.5
861.165
860.499
859.462
856.376
850.837
844.401
838.633
858.264
858.961
859.643
860.231
860.719
861.021
861.061
860.904
860.637
860.304
859.964
858.898
854.459
846.993
839.473
857.004
857.368
857.876
858.447
858.997
859.449
859.729
859.846
859.831
859.768
859.731
858.884
854.787
847.28
839.554
856.236
856.486
856.865
857.301
857.735
858.151
858.51
858.791
858.99
859.137
859.337
858.633
854.366
846.846
839.395
855.559
855.727
856.055
856.394
856.741
857.141
857.578
857.998
858.384
858.74
858.886
857.375
852.412
845.476
838.975
855.25
855.247
855.411
855.611
855.842
856.188
856.678
857.274
857.88
858.375
858.297
856.192
851.077
844.692
838.744
854.755